0, 1, 1, 0, -3.5, -3.5, -2.5, -2.5, 1.04321, -0.102209, 0.196011, 210098
1, 2, 2, 1, -3.5, -3.5, -2.5, -2.5, 1.04811, -0.295762, 0.653305, 210167
2, 3, 3, 2, -3.5, -3.5, -2.5, -2.5, 1.03019, -0.488394, 0.640682, 210047
3, 4, 4, 3, -3.5, -3.5, -2.5, -2.5, 1.01911, -0.705955, 0.563378, 210093
4, 5, 5, 4, -3.5, -3.5, -2.5, -2.5, 1.00334, -0.891958, 0.652217, 210088
5, 6, 6, 5, -3.5, -3.5, -2.5, -2.5, 1.00831, -1.07152, 0.652048, 210048
6, 7, 7, 6, -3.5, -3.5, -2.5, -2.5, 1.00826, -1.24098, 0.648254, 210134
7, 8, 8, 7, -3.5, -3.5, -2.5, -2.5, 1.00625, -1.41542, 0.639206, 210102
8, 9, 9, 8, -3.5, -3.5, -2.5, -2.5, 0.995928, -1.53009, 0.58404, 210214
9, 10, 10, 9, -3.5, -3.5, -2.5, -2.5, 1.00867, -1.71205, 0.503207, 210237
10, 11, 11, 10, -3.5, -3.5, -2.5, -2.5, 1.00853, -1.94492, 0.412772, 210290
11, 12, 12, 11, -3.5, -3.5, -2.5, -2.5, 1.00813, -2.19681, 0.504755, 210494
12, 13, 13, 12, -3.5, -3.5, -2.5, -2.5, 1.00749, -2.40248, 0.533548, 210518
13, 14, 14, 13, -3.5, -3.5, -2.5, -2.5, 1.00811, -2.55, 0.433435, 210731
14, 15, 15, 14, -3.5, -3.5, -2.5, -2.5, 1.00811, -2.68866, 0.0460747, 210683
15, 16, 16, 15, -3.5, -3.5, -2.5, -2.5, 1.00766, -2.85626, 0.124961, 210804
16, 17, 17, 16, -3.5, -3.5, -2.5, -2.5, 1.00352, -3.08375, 0.326884, 210654
17, 18, 18, 17, -3.5, -3.5, -2.5, -2.5, 0.995396, -3.34549, 0.172407, 210741
18, 19, 19, 18, -3.5, -3.5, -2.5, -2.5, 0.972715, -3.41231, 0.88227, 210648
19, 20, 20, 19, -3.5, -3.5, -2.5, -2.5, 1.00306, -3.64007, 0.17431, 210669
20, 21, 21, 20, -3.5, -3.5, -2.5, -2.5, 1.00222, -3.84567, -0.0507298, 210498
21, 22, 22, 21, -3.5, -3.5, -2.5, -2.5, 1.00164, -4.12135, 0.157315, 210598
22, 23, 23, 22, -3.5, -3.5, -2.5, -2.5, 0.9983, -4.43255, 0.359578, 210502
23, 24, 24, 23, -3.5, -3.5, -2.5, -2.5, 0.990002, -4.77351, 0.789257, 210706
24, 25, 25, 24, -3.5, -3.5, -2.5, -2.5, 0.960445, -4.86465, 1.65108, 210659
25, 26, 26, 25, -3.5, -3.5, -2.5, -2.5, 0.995904, -5.35159, 0.665311, 210600
26, 27, 27, 26, -3.5, -3.5, -2.5, -2.5, 0.995006, -5.85251, 1.13308, 210867
27, 28, 28, 27, -3.5, -3.5, -2.5, -2.5, 0.995028, -6.26639, 1.13033, 210945
28, 29, 29, 28, -3.5, -3.5, -2.5, -2.5, 0.993456, -6.78529, 1.17973, 211111
29, 30, 30, 29, -3.5, -3.5, -2.5, -2.5, 0.985206, -7.27613, 1.29146, 210946
30, 31, 31, 30, -3.5, -3.5, -2.5, -2.5, 0.96007, -7.50642, 1.91136, 211222
31, 32, 32, 31, -3.5, -3.5, -2.5, -2.5, 0.974731, -7.8238, 1.86369, 211038
32, 33, 33, 32, -3.5, -3.5, -2.5, -2.5, 0.973505, -8.04459, 1.98591, 210945
33, 34, 34, 33, -3.5, -3.5, -2.5, -2.5, 0.993, -8.43216, 1.56033, 210861
34, 35, 35, 34, -3.5, -3.5, -2.5, -2.5, 0.990046, -8.50282, 1.8675, 210731
35, 36, 36, 35, -3.5, -3.5, -2.5, -2.5, 1.02724, -8.96289, 1.23826, 210805
36, 37, 37, 36, -3.5, -3.5, -2.5, -2.5, 0.997787, -9.30566, 1.36163, 210354
37, 38, 38, 37, -3.5, -3.5, -2.5, -2.5, 0.981468, -10.2024, 1.48138, 210627
38, 39, 39, 38, -3.5, -3.5, -2.5, -2.5, 0.962579, -10.9314, 1.63469, 210394
39, 40, 40, 39, -3.5, -3.5, -2.5, -2.5, 0.943785, -11.1628, 1.79908, 210781
40, 41, 41, 40, -3.5, -3.5, -2.5, -2.5, 1.01817, -11.9747, 1.37176, 210875
41, 42, 42, 41, -3.5, -3.5, -2.5, -2.5, 0.991835, -11.8791, 1.4194, 211013
42, 43, 43, 42, -3.5, -3.5, -2.5, -2.5, 0.973614, -12.6709, 1.68831, 211388
43, 44, 44, 43, -3.5, -3.5, -2.5, -2.5, 0.956765, -13.2173, 1.82849, 211952
44, 45, 45, 44, -3.5, -3.5, -2.5, -2.5, 0.935431, -12.8738, 2.58813, 212661
45, 46, 46, 45, -3.5, -3.5, -2.5, -2.5, 0.976256, -12.2253, 2.91772, 213480
46, 47, 47, 46, -3.5, -3.5, -2.5, -2.5, 0.973974, -10.921, 3.07643, 214409
47, 48, 48, 47, -3.5, -3.5, -2.5, -2.5, 0.966318, -9.54928, 3.59438, 216143
48, 49, 49, 48, -3.5, -3.5, -2.5, -2.5, 0.953785, -7.26511, 2.51518, 218305
49, 50, 50, 49, -3.5, -3.5, -2.5, -2.5, 1.10139, -4.54367, 2.23709, 222086
50, 51, 51, 50, -3.5, -3.5, -2.5, -2.5, 0.982395, -0.0196541, 4.35408, 225760
51, 52, 52, 51, -3.5, -3.5, -2.5, -2.5, 0.976531, 5.61584, 3.1252, 231050
52, 53, 53, 52, -3.5, -3.5, -2.5, -2.5, 1.12583, 12.7964, 5.01788, 236613
53, 54, 54, 53, -3.5, -3.5, -2.5, -2.5, 1.03554, 18.2088, 7.09338, 243388
54, 55, 55, 54, -3.5, -3.5, -2.5, -2.5, 1.04599, 26.3682, 7.47166, 250600
55, 56, 56, 55, -3.5, -3.5, -2.5, -2.5, 1.04867, 33.2014, 9.87527, 256156
56, 57, 57, 56, -3.5, -3.5, -2.5, -2.5, 1.06942, 42.0375, 11.1756, 263284
57, 58, 58, 57, -3.5, -3.5, -2.5, -2.5, 1.12609, 52.2672, 12.337, 271588
58, 59, 59, 58, -3.5, -3.5, -2.5, -2.5, 1.15658, 62.6033, 12.4401, 275496
59, 60, 60, 59, -3.5, -3.5, -2.5, -2.5, 1.21654, 70.7864, 9.44931, 277832
60, 61, 61, 60, -3.5, -3.5, -2.5, -2.5, 1.15332, 71.0681, 13.2745, 279103
61, 62, 62, 61, -3.5, -3.5, -2.5, -2.5, 1.1619, 73.0062, 10.0778, 277291
62, 63, 63, 62, -3.5, -3.5, -2.5, -2.5, 1.19016, 74.1429, 7.47936, 275638
63, 64, 64, 63, -3.5, -3.5, -2.5, -2.5, 1.18012, 72.7297, 8.46175, 272942
64, 65, 65, 64, -3.5, -3.5, -2.5, -2.5, 1.18729, 71.5058, 5.89723, 270494
65, 66, 66, 65, -3.5, -3.5, -2.5, -2.5, 1.16396, 67.663, 6.87048, 266419
66, 67, 67, 66, -3.5, -3.5, -2.5, -2.5, 1.16928, 62.9509, 4.64932, 262988
67, 68, 68, 67, -3.5, -3.5, -2.5, -2.5, 1.13392, 59.1683, 6.1717, 261246
68, 69, 69, 68, -3.5, -3.5, -2.5, -2.5, 1.12615, 57.2746, 3.60281, 255208
69, 70, 70, 69, -3.5, -3.5, -2.5, -2.5, 1.13426, 52.9713, 2.72649, 250112
70, 71, 71, 70, -3.5, -3.5, -2.5, -2.5, 1.11333, 46.9884, 2.07136, 245307
71, 72, 72, 71, -3.5, -3.5, -2.5, -2.5, 1.10391, 39.7514, 1.20926, 237785
72, 73, 73, 72, -3.5, -3.5, -2.5, -2.5, 1.08471, 31.2855, 0.795856, 229496
73, 74, 74, 73, -3.5, -3.5, -2.5, -2.5, 1.06186, 23.2078, 0.64466, 221696
74, 75, 75, 74, -3.5, -3.5, -2.5, -2.5, 1.04445, 16.185, 0.441883, 214487
75, 76, 76, 75, -3.5, -3.5, -2.5, -2.5, 1.02836, 10.5365, 0.30178, 208779
76, 77, 77, 76, -3.5, -3.5, -2.5, -2.5, 1.01503, 6.36747, 0.328613, 204443
77, 78, 78, 77, -3.5, -3.5, -2.5, -2.5, 1.00458, 3.51715, 0.290549, 201457
78, 79, 79, 78, -3.5, -3.5, -2.5, -2.5, 0.998608, 1.70913, 0.319577, 199462
79, 80, 80, 79, -3.5, -3.5, -2.5, -2.5, 0.994245, 0.673882, 0.281103, 198295
80, 81, 81, 80, -3.5, -3.5, -2.5, -2.5, 0.993275, 0.141776, 0.274203, 197693
81, 82, 82, 81, -3.5, -3.5, -2.5, -2.5, 0.992328, -0.0306471, 0.242583, 197410
82, 83, 83, 82, -3.5, -3.5, -2.5, -2.5, 0.991863, -0.0850507, 0.300464, 197338
83, 84, 84, 83, -3.5, -3.5, -2.5, -2.5, 0.991383, -0.112283, 0.224898, 197288
84, 85, 85, 84, -3.5, -3.5, -2.5, -2.5, 0.990505, -0.108248, 0.302082, 197310
85, 86, 86, 85, -3.5, -3.5, -2.5, -2.5, 0.990576, -0.0535217, 0.261979, 197228
86, 87, 87, 86, -3.5, -3.5, -2.5, -2.5, 0.990296, -0.0492924, 0.284573, 197245
87, 88, 88, 87, -3.5, -3.5, -2.5, -2.5, 0.991373, -0.0654375, 0.258744, 197271
88, 89, 89, 88, -3.5, -3.5, -2.5, -2.5, 0.991253, -0.0420847, 0.248201, 197273
89, 90, 90, 89, -3.5, -3.5, -2.5, -2.5, 0.99089, 0.0154715, 0.257264, 197210
90, 91, 91, 90, -3.5, -3.5, -2.5, -2.5, 0.99076, 0.0306735, 0.246702, 197226
91, 92, 92, 91, -3.5, -3.5, -2.5, -2.5, 0.990807, 0.0109494, 0.271252, 197260
92, 93, 93, 92, -3.5, -3.5, -2.5, -2.5, 0.990744, 0.0483494, 0.232367, 197272
93, 94, 94, 93, -3.5, -3.5, -2.5, -2.5, 0.990323, 0.0966357, 0.271905, 197203
94, 95, 95, 94, -3.5, -3.5, -2.5, -2.5, 0.990144, 0.105219, 0.24928, 197206
95, 96, 96, 95, -3.5, -3.5, -2.5, -2.5, 0.990112, 0.0768305, 0.250502, 197216
96, 97, 97, 96, -3.5, -3.5, -2.5, -2.5, 0.990153, 0.092512, 0.260432, 197257
97, 98, 98, 97, -3.5, -3.5, -2.5, -2.5, 0.989717, 0.146386, 0.261895, 197207
98, 99, 99, 98, -3.5, -3.5, -2.5, -2.5, 0.98972, 0.190139, 0.265967, 197255
99, 100, 100, 99, -3.5, -3.5, -2.5, -2.5, 0.989831, 0.188025, 0.267347, 197255
-1, 0, 0, -1, -2.5, -2.5, -1.5, -1.5, 1.04321, 0.102209, 0.196011, 210098
0, 1, 1, 0, -2.5, -2.5, -1.5, -1.5, 1.04321, -0.102209, 0.196011, 210098
1, 2, 2, 1, -2.5, -2.5, -1.5, -1.5, 1.04811, -0.295762, 0.653305, 210167
2, 3, 3, 2, -2.5, -2.5, -1.5, -1.5, 1.03019, -0.488394, 0.640682, 210047
3, 4, 4, 3, -2.5, -2.5, -1.5, -1.5, 1.01911, -0.705955, 0.563378, 210093
4, 5, 5, 4, -2.5, -2.5, -1.5, -1.5, 1.00334, -0.891958, 0.652217, 210088
5, 6, 6, 5, -2.5, -2.5, -1.5, -1.5, 1.00831, -1.07152, 0.652048, 210048
6, 7, 7, 6, -2.5, -2.5, -1.5, -1.5, 1.00826, -1.24098, 0.648254, 210134
7, 8, 8, 7, -2.5, -2.5, -1.5, -1.5, 1.00625, -1.41542, 0.639206, 210102
8, 9, 9, 8, -2.5, -2.5, -1.5, -1.5, 0.995928, -1.53009, 0.58404, 210214
9, 10, 10, 9, -2.5, -2.5, -1.5, -1.5, 1.00867, -1.71205, 0.503207, 210237
10, 11, 11, 10, -2.5, -2.5, -1.5, -1.5, 1.00853, -1.94492, 0.412772, 210290
11, 12, 12, 11, -2.5, -2.5, -1.5, -1.5, 1.00813, -2.19681, 0.504755, 210494
12, 13, 13, 12, -2.5, -2.5, -1.5, -1.5, 1.00749, -2.40248, 0.533548, 210518
13, 14, 14, 13, -2.5, -2.5, -1.5, -1.5, 1.00811, -2.55, 0.433435, 210731
14, 15, 15, 14, -2.5, -2.5, -1.5, -1.5, 1.00811, -2.68866, 0.0460747, 210683
15, 16, 16, 15, -2.5, -2.5, -1.5, -1.5, 1.00766, -2.85626, 0.124961, 210804
16, 17, 17, 16, -2.5, -2.5, -1.5, -1.5, 1.00352, -3.08375, 0.326884, 210654
17, 18, 18, 17, -2.5, -2.5, -1.5, -1.5, 0.995396, -3.34549, 0.172407, 210741
18, 19, 19, 18, -2.5, -2.5, -1.5, -1.5, 0.972715, -3.41231, 0.88227, 210648
19, 20, 20, 19, -2.5, -2.5, -1.5, -1.5, 1.00306, -3.64007, 0.17431, 210669
20, 21, 21, 20, -2.5, -2.5, -1.5, -1.5, 1.00222, -3.84567, -0.0507298, 210498
21, 22, 22, 21, -2.5, -2.5, -1.5, -1.5, 1.00164, -4.12135, 0.157315, 210598
22, 23, 23, 22, -2.5, -2.5, -1.5, -1.5, 0.9983, -4.43255, 0.359578, 210502
23, 24, 24, 23, -2.5, -2.5, -1.5, -1.5, 0.990002, -4.77351, 0.789257, 210706
24, 25, 25, 24, -2.5, -2.5, -1.5, -1.5, 0.960445, -4.86465, 1.65108, 210659
25, 26, 26, 25, -2.5, -2.5, -1.5, -1.5, 0.995904, -5.35159, 0.665311, 210600
26, 27, 27, 26, -2.5, -2.5, -1.5, -1.5, 0.995006, -5.85251, 1.13308, 210867
27, 28, 28, 27, -2.5, -2.5, -1.5, -1.5, 0.995028, -6.26639, 1.13033, 210945
28, 29, 29, 28, -2.5, -2.5, -1.5, -1.5, 0.993456, -6.78529, 1.17973, 211111
29, 30, 30, 29, -2.5, -2.5, -1.5, -1.5, 0.985206, -7.27613, 1.29146, 210946
30, 31, 31, 30, -2.5, -2.5, -1.5, -1.5, 0.96007, -7.50642, 1.91136, 211222
31, 32, 32, 31, -2.5, -2.5, -1.5, -1.5, 0.974731, -7.8238, 1.86369, 211038
32, 33, 33, 32, -2.5, -2.5, -1.5, -1.5, 0.973505, -8.04459, 1.98591, 210945
33, 34, 34, 33, -2.5, -2.5, -1.5, -1.5, 0.993, -8.43216, 1.56033, 210861
34, 35, 35, 34, -2.5, -2.5, -1.5, -1.5, 0.990046, -8.50282, 1.8675, 210731
35, 36, 36, 35, -2.5, -2.5, -1.5, -1.5, 1.02724, -8.96289, 1.23826, 210805
36, 37, 37, 36, -2.5, -2.5, -1.5, -1.5, 0.997787, -9.30566, 1.36163, 210354
37, 38, 38, 37, -2.5, -2.5, -1.5, -1.5, 0.981468, -10.2024, 1.48138, 210627
38, 39, 39, 38, -2.5, -2.5, -1.5, -1.5, 0.962579, -10.9314, 1.63469, 210394
39, 40, 40, 39, -2.5, -2.5, -1.5, -1.5, 0.943785, -11.1628, 1.79908, 210781
40, 41, 41, 40, -2.5, -2.5, -1.5, -1.5, 1.01817, -11.9747, 1.37176, 210875
41, 42, 42, 41, -2.5, -2.5, -1.5, -1.5, 0.991835, -11.8791, 1.4194, 211013
42, 43, 43, 42, -2.5, -2.5, -1.5, -1.5, 0.973614, -12.6709, 1.68831, 211388
43, 44, 44, 43, -2.5, -2.5, -1.5, -1.5, 0.956765, -13.2173, 1.82849, 211952
44, 45, 45, 44, -2.5, -2.5, -1.5, -1.5, 0.935431, -12.8738, 2.58813, 212661
45, 46, 46, 45, -2.5, -2.5, -1.5, -1.5, 0.976256, -12.2253, 2.91772, 213480
46, 47, 47, 46, -2.5, -2.5, -1.5, -1.5, 0.973974, -10.921, 3.07643, 214409
47, 48, 48, 47, -2.5, -2.5, -1.5, -1.5, 0.966318, -9.54928, 3.59438, 216143
48, 49, 49, 48, -2.5, -2.5, -1.5, -1.5, 0.953785, -7.26511, 2.51518, 218305
49, 50, 50, 49, -2.5, -2.5, -1.5, -1.5, 1.10139, -4.54367, 2.23709, 222086
50, 51, 51, 50, -2.5, -2.5, -1.5, -1.5, 0.982395, -0.0196541, 4.35408, 225760
51, 52, 52, 51, -2.5, -2.5, -1.5, -1.5, 0.976531, 5.61584, 3.1252, 231050
52, 53, 53, 52, -2.5, -2.5, -1.5, -1.5, 1.12583, 12.7964, 5.01788, 236613
53, 54, 54, 53, -2.5, -2.5, -1.5, -1.5, 1.03554, 18.2088, 7.09338, 243388
54, 55, 55, 54, -2.5, -2.5, -1.5, -1.5, 1.04599, 26.3682, 7.47166, 250600
55, 56, 56, 55, -2.5, -2.5, -1.5, -1.5, 1.04867, 33.2014, 9.87527, 256156
56, 57, 57, 56, -2.5, -2.5, -1.5, -1.5, 1.06942, 42.0375, 11.1756, 263284
57, 58, 58, 57, -2.5, -2.5, -1.5, -1.5, 1.12609, 52.2672, 12.337, 271588
58, 59, 59, 58, -2.5, -2.5, -1.5, -1.5, 1.15658, 62.6033, 12.4401, 275496
59, 60, 60, 59, -2.5, -2.5, -1.5, -1.5, 1.21654, 70.7864, 9.44931, 277832
60, 61, 61, 60, -2.5, -2.5, -1.5, -1.5, 1.15332, 71.0681, 13.2745, 279103
61, 62, 62, 61, -2.5, -2.5, -1.5, -1.5, 1.1619, 73.0062, 10.0778, 277291
62, 63, 63, 62, -2.5, -2.5, -1.5, -1.5, 1.19016, 74.1429, 7.47936, 275638
63, 64, 64, 63, -2.5, -2.5, -1.5, -1.5, 1.18012, 72.7297, 8.46175, 272942
64, 65, 65, 64, -2.5, -2.5, -1.5, -1.5, 1.18729, 71.5058, 5.89723, 270494
65, 66, 66, 65, -2.5, -2.5, -1.5, -1.5, 1.16396, 67.663, 6.87048, 266419
66, 67, 67, 66, -2.5, -2.5, -1.5, -1.5, 1.16928, 62.9509, 4.64932, 262988
67, 68, 68, 67, -2.5, -2.5, -1.5, -1.5, 1.13392, 59.1683, 6.1717, 261246
68, 69, 69, 68, -2.5, -2.5, -1.5, -1.5, 1.12615, 57.2746, 3.60281, 255208
69, 70, 70, 69, -2.5, -2.5, -1.5, -1.5, 1.13426, 52.9713, 2.72649, 250112
70, 71, 71, 70, -2.5, -2.5, -1.5, -1.5, 1.11333, 46.9884, 2.07136, 245307
71, 72, 72, 71, -2.5, -2.5, -1.5, -1.5, 1.10391, 39.7514, 1.20926, 237785
72, 73, 73, 72, -2.5, -2.5, -1.5, -1.5, 1.08471, 31.2855, 0.795856, 229496
73, 74, 74, 73, -2.5, -2.5, -1.5, -1.5, 1.06186, 23.2078, 0.64466, 221696
74, 75, 75, 74, -2.5, -2.5, -1.5, -1.5, 1.04445, 16.185, 0.441883, 214487
75, 76, 76, 75, -2.5, -2.5, -1.5, -1.5, 1.02836, 10.5365, 0.30178, 208779
76, 77, 77, 76, -2.5, -2.5, -1.5, -1.5, 1.01503, 6.36747, 0.328613, 204443
77, 78, 78, 77, -2.5, -2.5, -1.5, -1.5, 1.00458, 3.51715, 0.290549, 201457
78, 79, 79, 78, -2.5, -2.5, -1.5, -1.5, 0.998608, 1.70913, 0.319577, 199462
79, 80, 80, 79, -2.5, -2.5, -1.5, -1.5, 0.994245, 0.673882, 0.281103, 198295
80, 81, 81, 80, -2.5, -2.5, -1.5, -1.5, 0.993275, 0.141776, 0.274203, 197693
81, 82, 82, 81, -2.5, -2.5, -1.5, -1.5, 0.992328, -0.0306471, 0.242583, 197410
82, 83, 83, 82, -2.5, -2.5, -1.5, -1.5, 0.991863, -0.0850507, 0.300464, 197338
83, 84, 84, 83, -2.5, -2.5, -1.5, -1.5, 0.991383, -0.112283, 0.224898, 197288
84, 85, 85, 84, -2.5, -2.5, -1.5, -1.5, 0.990505, -0.108248, 0.302082, 197310
85, 86, 86, 85, -2.5, -2.5, -1.5, -1.5, 0.990576, -0.0535217, 0.261979, 197228
86, 87, 87, 86, -2.5, -2.5, -1.5, -1.5, 0.990296, -0.0492924, 0.284573, 197245
87, 88, 88, 87, -2.5, -2.5, -1.5, -1.5, 0.991373, -0.0654375, 0.258744, 197271
88, 89, 89, 88, -2.5, -2.5, -1.5, -1.5, 0.991253, -0.0420847, 0.248201, 197273
89, 90, 90, 89, -2.5, -2.5, -1.5, -1.5, 0.99089, 0.0154715, 0.257264, 197210
90, 91, 91, 90, -2.5, -2.5, -1.5, -1.5, 0.99076, 0.0306735, 0.246702, 197226
91, 92, 92, 91, -2.5, -2.5, -1.5, -1.5, 0.990807, 0.0109494, 0.271252, 197260
92, 93, 93, 92, -2.5, -2.5, -1.5, -1.5, 0.990744, 0.0483494, 0.232367, 197272
93, 94, 94, 93, -2.5, -2.5, -1.5, -1.5, 0.990323, 0.0966357, 0.271905, 197203
94, 95, 95, 94, -2.5, -2.5, -1.5, -1.5, 0.990144, 0.105219, 0.24928, 197206
95, 96, 96, 95, -2.5, -2.5, -1.5, -1.5, 0.990112, 0.0768305, 0.250502, 197216
96, 97, 97, 96, -2.5, -2.5, -1.5, -1.5, 0.990153, 0.092512, 0.260432, 197257
97, 98, 98, 97, -2.5, -2.5, -1.5, -1.5, 0.989717, 0.146386, 0.261895, 197207
98, 99, 99, 98, -2.5, -2.5, -1.5, -1.5, 0.98972, 0.190139, 0.265967, 197255
99, 100, 100, 99, -2.5, -2.5, -1.5, -1.5, 0.989831, 0.188025, 0.267347, 197255
100, 101, 101, 100, -2.5, -2.5, -1.5, -1.5, 0.989831, 0.188025, 0.267347, 197255
-1, 0, 0, -1, -1.5, -1.5, -0.5, -0.5, 1.04748, 0.115752, 0.120045, 210151
0, 1, 1, 0, -1.5, -1.5, -0.5, -0.5, 1.04748, -0.115752, 0.120045, 210151
1, 2, 2, 1, -1.5, -1.5, -0.5, -0.5, 1.04108, -0.302675, 0.554514, 210036
2, 3, 3, 2, -1.5, -1.5, -0.5, -0.5, 1.02977, -0.527055, 0.510812, 210175
3, 4, 4, 3, -1.5, -1.5, -0.5, -0.5, 1.01828, -0.784598, 0.497903, 210028
4, 5, 5, 4, -1.5, -1.5, -0.5, -0.5, 1.00024, -0.923293, 0.597147, 210015
5, 6, 6, 5, -1.5, -1.5, -0.5, -0.5, 1.00619, -1.14009, 0.547205, 210168
6, 7, 7, 6, -1.5, -1.5, -0.5, -0.5, 1.00504, -1.32522, 0.552844, 210022
7, 8, 8, 7, -1.5, -1.5, -0.5, -0.5, 1.00571, -1.49222, 0.512489, 210203
8, 9, 9, 8, -1.5, -1.5, -0.5, -0.5, 1.00123, -1.62002, 0.496067, 210122
9, 10, 10, 9, -1.5, -1.5, -0.5, -0.5, 1.00965, -1.77903, 0.370745, 210298
10, 11, 11, 10, -1.5, -1.5, -0.5, -0.5, 1.00893, -2.05638, 0.310426, 210296
11, 12, 12, 11, -1.5, -1.5, -0.5, -0.5, 1.00769, -2.28058, 0.359672, 210363
12, 13, 13, 12, -1.5, -1.5, -0.5, -0.5, 1.00826, -2.48509, 0.358485, 210709
13, 14, 14, 13, -1.5, -1.5, -0.5, -0.5, 1.00819, -2.66602, 0.304873, 210576
14, 15, 15, 14, -1.5, -1.5, -0.5, -0.5, 1.0098, -2.80892, -0.144652, 210882
15, 16, 16, 15, -1.5, -1.5, -0.5, -0.5, 1.00959, -2.98096, -0.0346946, 210666
16, 17, 17, 16, -1.5, -1.5, -0.5, -0.5, 1.00875, -3.20799, 0.0970655, 210859
17, 18, 18, 17, -1.5, -1.5, -0.5, -0.5, 1.00356, -3.45599, -0.0366974, 210584
18, 19, 19, 18, -1.5, -1.5, -0.5, -0.5, 0.994461, -3.66556, 0.634537, 210823
19, 20, 20, 19, -1.5, -1.5, -0.5, -0.5, 0.977238, -3.77122, 0.0847268, 210548
20, 21, 21, 20, -1.5, -1.5, -0.5, -0.5, 0.99386, -4.03037, -0.168776, 210660
21, 22, 22, 21, -1.5, -1.5, -0.5, -0.5, 0.991023, -4.23538, 0.0294553, 210498
22, 23, 23, 22, -1.5, -1.5, -0.5, -0.5, 0.992962, -4.48971, 0.182421, 210761
23, 24, 24, 23, -1.5, -1.5, -0.5, -0.5, 0.9913, -4.79742, 0.607552, 210588
24, 25, 25, 24, -1.5, -1.5, -0.5, -0.5, 0.98355, -5.07672, 1.39984, 210952
25, 26, 26, 25, -1.5, -1.5, -0.5, -0.5, 0.964964, -5.3487, 0.429759, 210751
26, 27, 27, 26, -1.5, -1.5, -0.5, -0.5, 0.988929, -5.83346, 0.89389, 211061
27, 28, 28, 27, -1.5, -1.5, -0.5, -0.5, 0.988807, -6.3634, 0.874532, 211102
28, 29, 29, 28, -1.5, -1.5, -0.5, -0.5, 0.985493, -6.87661, 0.845629, 210912
29, 30, 30, 29, -1.5, -1.5, -0.5, -0.5, 0.979816, -7.40085, 0.875139, 211332
30, 31, 31, 30, -1.5, -1.5, -0.5, -0.5, 0.958532, -7.69477, 1.58418, 211054
31, 32, 32, 31, -1.5, -1.5, -0.5, -0.5, 0.969152, -7.93405, 1.5029, 211197
32, 33, 33, 32, -1.5, -1.5, -0.5, -0.5, 0.967581, -8.29131, 1.65663, 211007
33, 34, 34, 33, -1.5, -1.5, -0.5, -0.5, 0.956712, -8.45905, 1.20343, 210856
34, 35, 35, 34, -1.5, -1.5, -0.5, -0.5, 0.969144, -8.83139, 1.40389, 211081
35, 36, 36, 35, -1.5, -1.5, -0.5, -0.5, 0.965964, -8.9608, 0.866415, 210686
36, 37, 37, 36, -1.5, -1.5, -0.5, -0.5, 1.00931, -9.72322, 1.04065, 211012
37, 38, 38, 37, -1.5, -1.5, -0.5, -0.5, 0.988671, -10.2575, 0.938926, 210360
38, 39, 39, 38, -1.5, -1.5, -0.5, -0.5, 0.964705, -10.672, 1.22316, 210877
39, 40, 40, 39, -1.5, -1.5, -0.5, -0.5, 1.01435, -11.4591, 1.61795, 210701
40, 41, 41, 40, -1.5, -1.5, -0.5, -0.5, 0.996744, -11.4943, 0.761075, 210991
41, 42, 42, 41, -1.5, -1.5, -0.5, -0.5, 0.979985, -12.0732, 0.79024, 211145
42, 43, 43, 42, -1.5, -1.5, -0.5, -0.5, 0.963972, -12.9402, 1.03453, 211651
43, 44, 44, 43, -1.5, -1.5, -0.5, -0.5, 0.941565, -13.3439, 1.21312, 212260
44, 45, 45, 44, -1.5, -1.5, -0.5, -0.5, 0.955706, -13.2357, 2.00653, 213079
45, 46, 46, 45, -1.5, -1.5, -0.5, -0.5, 0.945241, -12.1987, 2.27545, 213576
46, 47, 47, 46, -1.5, -1.5, -0.5, -0.5, 0.960493, -11.0989, 2.33137, 214428
47, 48, 48, 47, -1.5, -1.5, -0.5, -0.5, 0.958692, -9.95678, 2.56429, 216088
48, 49, 49, 48, -1.5, -1.5, -0.5, -0.5, 0.996388, -7.56983, 1.40549, 218906
49, 50, 50, 49, -1.5, -1.5, -0.5, -0.5, 1.00645, -4.30514, 1.06809, 221526
50, 51, 51, 50, -1.5, -1.5, -0.5, -0.5, 1.01036, 0.657341, 2.99304, 226724
51, 52, 52, 51, -1.5, -1.5, -0.5, -0.5, 0.998477, 6.4182, 1.77587, 230475
52, 53, 53, 52, -1.5, -1.5, -0.5, -0.5, 1.1036, 13.9705, 2.8493, 237660
53, 54, 54, 53, -1.5, -1.5, -0.5, -0.5, 1.05989, 19.7861, 4.89735, 243025
54, 55, 55, 54, -1.5, -1.5, -0.5, -0.5, 1.16197, 30.0848, 4.88506, 250330
55, 56, 56, 55, -1.5, -1.5, -0.5, -0.5, 1.06954, 34.4162, 6.51042, 256818
56, 57, 57, 56, -1.5, -1.5, -0.5, -0.5, 1.07468, 42.6119, 6.6483, 264450
57, 58, 58, 57, -1.5, -1.5, -0.5, -0.5, 1.18343, 54.1654, 7.08229, 268814
58, 59, 59, 58, -1.5, -1.5, -0.5, -0.5, 1.13482, 60.0201, 5.8445, 275758
59, 60, 60, 59, -1.5, -1.5, -0.5, -0.5, 1.14265, 67.0814, 3.75336, 278842
60, 61, 61, 60, -1.5, -1.5, -0.5, -0.5, 1.18507, 73.8217, 6.89839, 279994
61, 62, 62, 61, -1.5, -1.5, -0.5, -0.5, 1.16477, 72.892, 4.89589, 277907
62, 63, 63, 62, -1.5, -1.5, -0.5, -0.5, 1.15687, 72.6986, 2.26478, 275005
63, 64, 64, 63, -1.5, -1.5, -0.5, -0.5, 1.18668, 73.6561, 3.05705, 274433
64, 65, 65, 64, -1.5, -1.5, -0.5, -0.5, 1.16343, 71.3054, 1.52775, 269691
65, 66, 66, 65, -1.5, -1.5, -0.5, -0.5, 1.17498, 69.7236, 2.41155, 267767
66, 67, 67, 66, -1.5, -1.5, -0.5, -0.5, 1.16226, 63.9221, 1.52196, 263556
67, 68, 68, 67, -1.5, -1.5, -0.5, -0.5, 1.16345, 59.0611, 2.65983, 259961
68, 69, 69, 68, -1.5, -1.5, -0.5, -0.5, 1.11989, 56.6184, 1.24102, 255128
69, 70, 70, 69, -1.5, -1.5, -0.5, -0.5, 1.13382, 53.1549, 1.00315, 250041
70, 71, 71, 70, -1.5, -1.5, -0.5, -0.5, 1.11449, 46.8905, 0.768465, 245756
71, 72, 72, 71, -1.5, -1.5, -0.5, -0.5, 1.10063, 39.6141, 0.446393, 237404
72, 73, 73, 72, -1.5, -1.5, -0.5, -0.5, 1.08248, 31.2901, 0.325782, 229694
73, 74, 74, 73, -1.5, -1.5, -0.5, -0.5, 1.06229, 23.2167, 0.40764, 221519
74, 75, 75, 74, -1.5, -1.5, -0.5, -0.5, 1.04356, 16.1373, 0.304183, 214519
75, 76, 76, 75, -1.5, -1.5, -0.5, -0.5, 1.02579, 10.5209, 0.236526, 208736
76, 77, 77, 76, -1.5, -1.5, -0.5, -0.5, 1.0142, 6.37444, 0.272537, 204462
77, 78, 78, 77, -1.5, -1.5, -0.5, -0.5, 1.00484, 3.51979, 0.249613, 201402
78, 79, 79, 78, -1.5, -1.5, -0.5, -0.5, 0.997723, 1.70773, 0.280808, 199474
79, 80, 80, 79, -1.5, -1.5, -0.5, -0.5, 0.994465, 0.674155, 0.243242, 198281
80, 81, 81, 80, -1.5, -1.5, -0.5, -0.5, 0.992579, 0.136026, 0.241187, 197661
81, 82, 82, 81, -1.5, -1.5, -0.5, -0.5, 0.991006, -0.0539414, 0.204065, 197470
82, 83, 83, 82, -1.5, -1.5, -0.5, -0.5, 0.991115, -0.0735898, 0.265674, 197318
83, 84, 84, 83, -1.5, -1.5, -0.5, -0.5, 0.99116, -0.101924, 0.187508, 197301
84, 85, 85, 84, -1.5, -1.5, -0.5, -0.5, 0.990595, -0.114598, 0.253865, 197287
85, 86, 86, 85, -1.5, -1.5, -0.5, -0.5, 0.989867, -0.0688908, 0.216039, 197231
86, 87, 87, 86, -1.5, -1.5, -0.5, -0.5, 0.990356, -0.0580343, 0.247199, 197220
87, 88, 88, 87, -1.5, -1.5, -0.5, -0.5, 0.990526, -0.082786, 0.215725, 197220
88, 89, 89, 88, -1.5, -1.5, -0.5, -0.5, 0.990112, -0.0660975, 0.207242, 197269
89, 90, 90, 89, -1.5, -1.5, -0.5, -0.5, 0.990096, -0.000403076, 0.221135, 197187
90, 91, 91, 90, -1.5, -1.5, -0.5, -0.5, 0.990006, 0.017559, 0.203376, 197175
91, 92, 92, 91, -1.5, -1.5, -0.5, -0.5, 0.99001, 0.00802465, 0.231115, 197225
92, 93, 93, 92, -1.5, -1.5, -0.5, -0.5, 0.99002, 0.0406541, 0.196508, 197240
93, 94, 94, 93, -1.5, -1.5, -0.5, -0.5, 0.989747, 0.0912244, 0.226363, 197204
94, 95, 95, 94, -1.5, -1.5, -0.5, -0.5, 0.989648, 0.103286, 0.21198, 197196
95, 96, 96, 95, -1.5, -1.5, -0.5, -0.5, 0.98949, 0.0818484, 0.222784, 197199
96, 97, 97, 96, -1.5, -1.5, -0.5, -0.5, 0.989474, 0.10368, 0.21756, 197233
97, 98, 98, 97, -1.5, -1.5, -0.5, -0.5, 0.989332, 0.160283, 0.212796, 197199
98, 99, 99, 98, -1.5, -1.5, -0.5, -0.5, 0.989172, 0.19844, 0.208264, 197226
99, 100, 100, 99, -1.5, -1.5, -0.5, -0.5, 0.989282, 0.191487, 0.199412, 197225
100, 101, 101, 100, -1.5, -1.5, -0.5, -0.5, 0.989282, 0.191487, 0.199412, 197225
-1, 0, 0, -1, -0.5, -0.5, 0.5, 0.5, 1.0433, 0.0866067, 0.0237453, 210069
0, 1, 1, 0, -0.5, -0.5, 0.5, 0.5, 1.0433, -0.0866067, 0.0237453, 210069
1, 2, 2, 1, -0.5, -0.5, 0.5, 0.5, 1.04226, -0.310956, 0.401791, 210213
2, 3, 3, 2, -0.5, -0.5, 0.5, 0.5, 1.0311, -0.525988, 0.368411, 210012
3, 4, 4, 3, -0.5, -0.5, 0.5, 0.5, 1.02031, -0.751381, 0.388951, 210100
4, 5, 5, 4, -0.5, -0.5, 0.5, 0.5, 1.0009, -0.926354, 0.504596, 210116
5, 6, 6, 5, -0.5, -0.5, 0.5, 0.5, 1.00796, -1.11837, 0.430995, 210007
6, 7, 7, 6, -0.5, -0.5, 0.5, 0.5, 1.00765, -1.29487, 0.411912, 210215
7, 8, 8, 7, -0.5, -0.5, 0.5, 0.5, 1.01293, -1.49513, 0.362786, 210061
8, 9, 9, 8, -0.5, -0.5, 0.5, 0.5, 1.01359, -1.66441, 0.327333, 210290
9, 10, 10, 9, -0.5, -0.5, 0.5, 0.5, 1.01387, -1.88738, 0.20596, 210230
10, 11, 11, 10, -0.5, -0.5, 0.5, 0.5, 1.01366, -2.07877, 0.186695, 210289
11, 12, 12, 11, -0.5, -0.5, 0.5, 0.5, 1.01332, -2.29535, 0.190831, 210597
12, 13, 13, 12, -0.5, -0.5, 0.5, 0.5, 1.01425, -2.54002, 0.189547, 210494
13, 14, 14, 13, -0.5, -0.5, 0.5, 0.5, 1.01552, -2.74428, 0.135504, 210847
14, 15, 15, 14, -0.5, -0.5, 0.5, 0.5, 1.01525, -2.91941, -0.328482, 210647
15, 16, 16, 15, -0.5, -0.5, 0.5, 0.5, 1.01682, -3.08309, -0.248448, 210898
16, 17, 17, 16, -0.5, -0.5, 0.5, 0.5, 1.01434, -3.2918, -0.139478, 210636
17, 18, 18, 17, -0.5, -0.5, 0.5, 0.5, 1.01115, -3.54441, -0.305867, 210860
18, 19, 19, 18, -0.5, -0.5, 0.5, 0.5, 1.00059, -3.72938, 0.317497, 210558
19, 20, 20, 19, -0.5, -0.5, 0.5, 0.5, 0.979748, -3.7943, -0.0225188, 210716
20, 21, 21, 20, -0.5, -0.5, 0.5, 0.5, 0.991394, -4.0206, -0.31202, 210512
21, 22, 22, 21, -0.5, -0.5, 0.5, 0.5, 0.990615, -4.23423, -0.0953774, 210685
22, 23, 23, 22, -0.5, -0.5, 0.5, 0.5, 0.980184, -4.38498, 0.063304, 210555
23, 24, 24, 23, -0.5, -0.5, 0.5, 0.5, 0.995561, -4.70135, 0.454895, 210878
24, 25, 25, 24, -0.5, -0.5, 0.5, 0.5, 0.989579, -4.96187, 1.1575, 210728
25, 26, 26, 25, -0.5, -0.5, 0.5, 0.5, 1.00143, -5.27691, 0.327181, 210787
26, 27, 27, 26, -0.5, -0.5, 0.5, 0.5, 1.00125, -5.76761, 0.614474, 211123
27, 28, 28, 27, -0.5, -0.5, 0.5, 0.5, 0.998227, -6.23514, 0.633076, 210877
28, 29, 29, 28, -0.5, -0.5, 0.5, 0.5, 0.993087, -6.70187, 0.437985, 211351
29, 30, 30, 29, -0.5, -0.5, 0.5, 0.5, 0.967893, -6.97404, 0.583618, 211012
30, 31, 31, 30, -0.5, -0.5, 0.5, 0.5, 0.984914, -7.47844, 1.18353, 211570
31, 32, 32, 31, -0.5, -0.5, 0.5, 0.5, 0.982056, -7.82647, 1.08827, 211104
32, 33, 33, 32, -0.5, -0.5, 0.5, 0.5, 0.9824, -8.13715, 1.27614, 211086
33, 34, 34, 33, -0.5, -0.5, 0.5, 0.5, 0.982585, -8.65831, 0.767801, 211018
34, 35, 35, 34, -0.5, -0.5, 0.5, 0.5, 0.979415, -9.02406, 0.825789, 210704
35, 36, 36, 35, -0.5, -0.5, 0.5, 0.5, 0.978081, -9.48264, 0.325623, 211013
36, 37, 37, 36, -0.5, -0.5, 0.5, 0.5, 0.972186, -9.97097, 0.658893, 210520
37, 38, 38, 37, -0.5, -0.5, 0.5, 0.5, 0.966708, -10.6216, 0.327475, 210864
38, 39, 39, 38, -0.5, -0.5, 0.5, 0.5, 0.954357, -10.9643, 1.03725, 210653
39, 40, 40, 39, -0.5, -0.5, 0.5, 0.5, 1.00105, -11.4611, 1.4249, 210927
40, 41, 41, 40, -0.5, -0.5, 0.5, 0.5, 0.994944, -11.554, 0.107788, 211013
41, 42, 42, 41, -0.5, -0.5, 0.5, 0.5, 0.982238, -12.0383, 0.275077, 211238
42, 43, 43, 42, -0.5, -0.5, 0.5, 0.5, 0.968909, -12.7361, 0.489328, 211734
43, 44, 44, 43, -0.5, -0.5, 0.5, 0.5, 0.955157, -13.2635, 0.863245, 212422
44, 45, 45, 44, -0.5, -0.5, 0.5, 0.5, 0.938721, -12.9536, 1.39221, 212902
45, 46, 46, 45, -0.5, -0.5, 0.5, 0.5, 0.946346, -11.9943, 1.53462, 214007
46, 47, 47, 46, -0.5, -0.5, 0.5, 0.5, 0.96343, -11.3307, 1.53457, 214714
47, 48, 48, 47, -0.5, -0.5, 0.5, 0.5, 0.963419, -10.0552, 1.48684, 216883
48, 49, 49, 48, -0.5, -0.5, 0.5, 0.5, 1.02246, -7.55389, 0.261222, 218420
49, 50, 50, 49, -0.5, -0.5, 0.5, 0.5, 1.0199, -3.58667, -0.164802, 222484
50, 51, 51, 50, -0.5, -0.5, 0.5, 0.5, 1.0156, 1.04646, 1.31859, 225764
51, 52, 52, 51, -0.5, -0.5, 0.5, 0.5, 1.02182, 7.2017, 0.24476, 231502
52, 53, 53, 52, -0.5, -0.5, 0.5, 0.5, 1.10647, 14.2913, 0.743641, 236256
53, 54, 54, 53, -0.5, -0.5, 0.5, 0.5, 1.07266, 20.73, 1.71621, 243987
54, 55, 55, 54, -0.5, -0.5, 0.5, 0.5, 1.17232, 30.145, 2.3746, 249095
55, 56, 56, 55, -0.5, -0.5, 0.5, 0.5, 1.08207, 34.8256, 3.64511, 256044
56, 57, 57, 56, -0.5, -0.5, 0.5, 0.5, 1.08007, 42.4465, 2.14166, 262552
57, 58, 58, 57, -0.5, -0.5, 0.5, 0.5, 1.19513, 54.4608, 0.685327, 270626
58, 59, 59, 58, -0.5, -0.5, 0.5, 0.5, 1.12989, 58.085, 0.096868, 272955
59, 60, 60, 59, -0.5, -0.5, 0.5, 0.5, 1.14674, 66.7116, 0.308683, 278419
60, 61, 61, 60, -0.5, -0.5, 0.5, 0.5, 1.19181, 73.5711, 2.06242, 279004
61, 62, 62, 61, -0.5, -0.5, 0.5, 0.5, 1.1629, 72.5073, 1.64433, 280289
62, 63, 63, 62, -0.5, -0.5, 0.5, 0.5, 1.15451, 72.0811, 0.153682, 274728
63, 64, 64, 63, -0.5, -0.5, 0.5, 0.5, 1.1852, 73.3233, -0.18959, 273545
64, 65, 65, 64, -0.5, -0.5, 0.5, 0.5, 1.17176, 71.0326, -0.40545, 270520
65, 66, 66, 65, -0.5, -0.5, 0.5, 0.5, 1.17759, 69.3882, 0.12669, 266564
66, 67, 67, 66, -0.5, -0.5, 0.5, 0.5, 1.16325, 64.4076, -0.305989, 266300
67, 68, 68, 67, -0.5, -0.5, 0.5, 0.5, 1.16245, 58.738, 0.230841, 259244
68, 69, 69, 68, -0.5, -0.5, 0.5, 0.5, 1.12659, 56.6614, 0.893461, 256915
69, 70, 70, 69, -0.5, -0.5, 0.5, 0.5, 1.13376, 52.7275, 0.0894351, 251011
70, 71, 71, 70, -0.5, -0.5, 0.5, 0.5, 1.11195, 46.6848, 0.245212, 244707
71, 72, 72, 71, -0.5, -0.5, 0.5, 0.5, 1.10201, 39.5433, 0.13048, 237785
72, 73, 73, 72, -0.5, -0.5, 0.5, 0.5, 1.0821, 31.2219, 0.134193, 229404
73, 74, 74, 73, -0.5, -0.5, 0.5, 0.5, 1.06269, 23.187, 0.220117, 221636
74, 75, 75, 74, -0.5, -0.5, 0.5, 0.5, 1.04349, 16.1265, 0.193583, 214432
75, 76, 76, 75, -0.5, -0.5, 0.5, 0.5, 1.02622, 10.5129, 0.153731, 208803
76, 77, 77, 76, -0.5, -0.5, 0.5, 0.5, 1.01421, 6.3753, 0.192907, 204407
77, 78, 78, 77, -0.5, -0.5, 0.5, 0.5, 1.00445, 3.51486, 0.160353, 201449
78, 79, 79, 78, -0.5, -0.5, 0.5, 0.5, 0.998714, 1.7063, 0.204372, 199428
79, 80, 80, 79, -0.5, -0.5, 0.5, 0.5, 0.994654, 0.674115, 0.168871, 198274
80, 81, 81, 80, -0.5, -0.5, 0.5, 0.5, 0.992901, 0.118691, 0.158079, 197678
81, 82, 82, 81, -0.5, -0.5, 0.5, 0.5, 0.991855, -0.04352, 0.13334, 197421
82, 83, 83, 82, -0.5, -0.5, 0.5, 0.5, 0.990719, -0.0819666, 0.185463, 197348
83, 84, 84, 83, -0.5, -0.5, 0.5, 0.5, 0.991129, -0.10905, 0.12143, 197269
84, 85, 85, 84, -0.5, -0.5, 0.5, 0.5, 0.990864, -0.11642, 0.171671, 197286
85, 86, 86, 85, -0.5, -0.5, 0.5, 0.5, 0.98991, -0.0618262, 0.137724, 197205
86, 87, 87, 86, -0.5, -0.5, 0.5, 0.5, 0.990926, -0.0519588, 0.163396, 197224
87, 88, 88, 87, -0.5, -0.5, 0.5, 0.5, 0.990715, -0.0820808, 0.136191, 197230
88, 89, 89, 88, -0.5, -0.5, 0.5, 0.5, 0.990402, -0.0598433, 0.148219, 197254
89, 90, 90, 89, -0.5, -0.5, 0.5, 0.5, 0.990409, -0.00711357, 0.142653, 197229
90, 91, 91, 90, -0.5, -0.5, 0.5, 0.5, 0.990094, 0.0161876, 0.146305, 197171
91, 92, 92, 91, -0.5, -0.5, 0.5, 0.5, 0.98999, 0.0226029, 0.172427, 197197
92, 93, 93, 92, -0.5, -0.5, 0.5, 0.5, 0.990232, 0.0376358, 0.12154, 197268
93, 94, 94, 93, -0.5, -0.5, 0.5, 0.5, 0.989763, 0.097065, 0.158325, 197183