-0.00335, -1e-05, -1e-05, -0.00335, 0.09926, 0.09889, 0.1023, 0.10268, 1, 1, 0, 200000
-0.00335, -1e-05, -1e-05, -0.00335, 0.09584, 0.09548, 0.09889, 0.09926, 1, 1, 0, 200000
-0.00335, -1e-05, -1e-05, -0.00335, 0.09241, 0.09207, 0.09548, 0.09584, 1, 1, 0, 200000
-0.00335, -1e-05, -1e-05, -0.00335, 0.08899, 0.08866, 0.09207, 0.09241, 1, 1, 0, 200000
-0.00335, -1e-05, -1e-05, -0.00335, 0.08557, 0.08525, 0.08866, 0.08899, 1, 1, 0, 200000
-0.00335, -1e-05, -1e-05, -0.00335, 0.08214, 0.08184, 0.08525, 0.08557, 1, 1, 0, 200000
-0.00335, -1e-05, -1e-05, -0.00335, 0.07872, 0.07843, 0.08184, 0.08214, 1, 1, 0, 200000
-0.00335, -1e-05, -1e-05, -0.00335, 0.0753, 0.07502, 0.07843, 0.07872, 1, 1, 0, 200000
-0.00335, -1e-05, -1e-05, -0.00335, 0.07188, 0.07161, 0.07502, 0.0753, 1, 1, 0, 200000
-0.00335, -1e-05, -1e-05, -0.00335, 0.06845, 0.0682, 0.07161, 0.07188, 1, 1, 0, 200000
-0.00335, -1e-05, -1e-05, -0.00335, 0.06503, 0.06479, 0.0682, 0.06845, 1, 1, 0, 200000
-0.00335, -1e-05, -1e-05, -0.00335, 0.06161, 0.06138, 0.06479, 0.06503, 1, 1, 0, 200000
-0.00335, -1e-05, -1e-05, -0.00335, 0.05819, 0.05797, 0.06138, 0.06161, 1, 1, 0, 200000
-0.00335, -1e-05, -1e-05, -0.00335, 0.05476, 0.05456, 0.05797, 0.05819, 1, 1, 0, 200000
-0.00335, -1e-05, -1e-05, -0.00335, 0.05134, 0.05115, 0.05456, 0.05476, 1, 1, 0, 200000
-0.00335, -1e-05, -1e-05, -0.00335, 0.04792, 0.04774, 0.05115, 0.05134, 1, 1, 0, 200000
-0.00335, -1e-05, -1e-05, -0.00335, 0.0445, 0.04433, 0.04774, 0.04792, 1, 1, 0, 200000
-0.00335, -1e-05, -1e-05, -0.00335, 0.04107, 0.04092, 0.04433, 0.0445, 1, 1, 0, 200000
-0.00335, -1e-05, -1e-05, -0.00335, 0.03765, 0.03751, 0.04092, 0.04107, 1, 1, 0, 200000
-0.00335, -1e-05, -1e-05, -0.00335, 0.03423, 0.0341, 0.03751, 0.03765, 1, 1, 0, 200000
-0.00335, -1e-05, -1e-05, -0.00335, 0.0308, 0.03069, 0.0341, 0.03423, 1, 1, 0, 200000
-0.00335, -1e-05, -1e-05, -0.00335, 0.02738, 0.02728, 0.03069, 0.0308, 1, 1, 0, 200000
-0.00335, -1e-05, -1e-05, -0.00335, 0.02396, 0.02387, 0.02728, 0.02738, 1, 1, 0, 200000
-0.00335, -1e-05, -1e-05, -0.00335, 0.02054, 0.02046, 0.02387, 0.02396, 1, 1, 0, 200000
-0.00335, -1e-05, -1e-05, -0.00335, 0.01711, 0.01705, 0.02046, 0.02054, 1, 1, 0, 200000
-0.00335, -1e-05, -1e-05, -0.00335, 0.01369, 0.01364, 0.01705, 0.01711, 1, 1, 0, 200000
-0.00335, -1e-05, -1e-05, -0.00335, 0.01027, 0.01023, 0.01364, 0.01369, 1, 1, 0, 200000
-0.00335, -1e-05, -1e-05, -0.00335, 0.00685, 0.00682, 0.01023, 0.01027, 1, 1, 0, 200000
-0.00335, -1e-05, -1e-05, -0.00335, 0.00342, 0.00341, 0.00682, 0.00685, 1, 1, 0, 200000
-0.00335, -1e-05, -1e-05, -0.00335, 0, 0, 0.00341, 0.00342, 1, 1, 0, 200000
-1e-05, 0.00332, 0.00332, -1e-05, 0.1023, 0.10192, 0.10532, 0.10571, 1, 1, 0, 200000
-1e-05, 0.00332, 0.00332, -1e-05, 0.09889, 0.09852, 0.10192, 0.1023, 1, 1, 0, 200000
-1e-05, 0.00332, 0.00332, -1e-05, 0.09548, 0.09513, 0.09852, 0.09889, 1, 1, 0, 200000
-1e-05, 0.00332, 0.00332, -1e-05, 0.09207, 0.09173, 0.09513, 0.09548, 1, 1, 0, 200000
-1e-05, 0.00332, 0.00332, -1e-05, 0.08866, 0.08833, 0.09173, 0.09207, 1, 1, 0, 200000
-1e-05, 0.00332, 0.00332, -1e-05, 0.08525, 0.08494, 0.08833, 0.08866, 1, 1, 0, 200000
-1e-05, 0.00332, 0.00332, -1e-05, 0.08184, 0.08154, 0.08494, 0.08525, 1, 1, 0, 200000
-1e-05, 0.00332, 0.00332, -1e-05, 0.07843, 0.07814, 0.08154, 0.08184, 1, 1, 0, 200000
-1e-05, 0.00332, 0.00332, -1e-05, 0.07502, 0.07474, 0.07814, 0.07843, 1, 1, 0, 200000
-1e-05, 0.00332, 0.00332, -1e-05, 0.07161, 0.07135, 0.07474, 0.07502, 1, 1, 0, 200000
-1e-05, 0.00332, 0.00332, -1e-05, 0.0682, 0.06795, 0.07135, 0.07161, 1, 1, 0, 200000
-1e-05, 0.00332, 0.00332, -1e-05, 0.06479, 0.06455, 0.06795, 0.0682, 1, 1, 0, 200000
-1e-05, 0.00332, 0.00332, -1e-05, 0.06138, 0.06115, 0.06455, 0.06479, 1, 1, 0, 200000
-1e-05, 0.00332, 0.00332, -1e-05, 0.05797, 0.05776, 0.06115, 0.06138, 1, 1, 0, 200000
-1e-05, 0.00332, 0.00332, -1e-05, 0.05456, 0.05436, 0.05776, 0.05797, 1, 1, 0, 200000
-1e-05, 0.00332, 0.00332, -1e-05, 0.05115, 0.05096, 0.05436, 0.05456, 1, 1, 0, 200000
-1e-05, 0.00332, 0.00332, -1e-05, 0.04774, 0.04756, 0.05096, 0.05115, 1, 1, 0, 200000
-1e-05, 0.00332, 0.00332, -1e-05, 0.04433, 0.04417, 0.04756, 0.04774, 1, 1, 0, 200000
-1e-05, 0.00332, 0.00332, -1e-05, 0.04092, 0.04077, 0.04417, 0.04433, 1, 1, 0, 200000
-1e-05, 0.00332, 0.00332, -1e-05, 0.03751, 0.03737, 0.04077, 0.04092, 1, 1, 0, 200000
-1e-05, 0.00332, 0.00332, -1e-05, 0.0341, 0.03397, 0.03737, 0.03751, 1, 1, 0, 200000
-1e-05, 0.00332, 0.00332, -1e-05, 0.03069, 0.03058, 0.03397, 0.0341, 1, 1, 0, 200000
-1e-05, 0.00332, 0.00332, -1e-05, 0.02728, 0.02718, 0.03058, 0.03069, 1, 1, 0, 200000
-1e-05, 0.00332, 0.00332, -1e-05, 0.02387, 0.02378, 0.02718, 0.02728, 1, 1, 0, 200000
-1e-05, 0.00332, 0.00332, -1e-05, 0.02046, 0.02038, 0.02378, 0.02387, 1, 1, 0, 200000
-1e-05, 0.00332, 0.00332, -1e-05, 0.01705, 0.01699, 0.02038, 0.02046, 1, 1, 0, 200000
-1e-05, 0.00332, 0.00332, -1e-05, 0.01364, 0.01359, 0.01699, 0.01705, 1, 1, 0, 200000
-1e-05, 0.00332, 0.00332, -1e-05, 0.01023, 0.01019, 0.01359, 0.01364, 1, 1, 0, 200000
-1e-05, 0.00332, 0.00332, -1e-05, 0.00682, 0.00679, 0.01019, 0.01023, 1, 1, 0, 200000
-1e-05, 0.00332, 0.00332, -1e-05, 0.00341, 0.0034, 0.00679, 0.00682, 1, 1, 0, 200000
-1e-05, 0.00332, 0.00332, -1e-05, 0, 0, 0.0034, 0.00341, 1, 1, 0, 200000
-1e-05, 0.00332, 0.00332, -1e-05, -0.00341, -0.0034, 0, 0, 1, 1, 0, 200000
0.00332, 0.00665, 0.00665, 0.00332, 0.10192, 0.10153, 0.10492, 0.10532, 1, 1, 0, 200000
0.00332, 0.00665, 0.00665, 0.00332, 0.09852, 0.09815, 0.10153, 0.10192, 1, 1, 0, 200000
0.00332, 0.00665, 0.00665, 0.00332, 0.09513, 0.09476, 0.09815, 0.09852, 1, 1, 0, 200000
0.00332, 0.00665, 0.00665, 0.00332, 0.09173, 0.09138, 0.09476, 0.09513, 1, 1, 0, 200000
0.00332, 0.00665, 0.00665, 0.00332, 0.08833, 0.08799, 0.09138, 0.09173, 1, 1, 0, 200000
0.00332, 0.00665, 0.00665, 0.00332, 0.08494, 0.08461, 0.08799, 0.08833, 1, 1, 0, 200000
0.00332, 0.00665, 0.00665, 0.00332, 0.08154, 0.08122, 0.08461, 0.08494, 1, 1, 0, 200000
0.00332, 0.00665, 0.00665, 0.00332, 0.07814, 0.07784, 0.08122, 0.08154, 1, 1, 0, 200000
0.00332, 0.00665, 0.00665, 0.00332, 0.07474, 0.07446, 0.07784, 0.07814, 1, 1, 0, 200000
0.00332, 0.00665, 0.00665, 0.00332, 0.07135, 0.07107, 0.07446, 0.07474, 1, 1, 0, 200000
0.00332, 0.00665, 0.00665, 0.00332, 0.06795, 0.06769, 0.07107, 0.07135, 1, 1, 0, 200000
0.00332, 0.00665, 0.00665, 0.00332, 0.06455, 0.0643, 0.06769, 0.06795, 1, 1, 0, 200000
0.00332, 0.00665, 0.00665, 0.00332, 0.06115, 0.06092, 0.0643, 0.06455, 1, 1, 0, 200000
0.00332, 0.00665, 0.00665, 0.00332, 0.05776, 0.05753, 0.06092, 0.06115, 1, 1, 0, 200000
0.00332, 0.00665, 0.00665, 0.00332, 0.05436, 0.05415, 0.05753, 0.05776, 1, 1, 0, 200000
0.00332, 0.00665, 0.00665, 0.00332, 0.05096, 0.05077, 0.05415, 0.05436, 1, 1, 0, 200000
0.00332, 0.00665, 0.00665, 0.00332, 0.04756, 0.04738, 0.05077, 0.05096, 1, 1, 0, 200000
0.00332, 0.00665, 0.00665, 0.00332, 0.04417, 0.044, 0.04738, 0.04756, 1, 1, 0, 200000
0.00332, 0.00665, 0.00665, 0.00332, 0.04077, 0.04061, 0.044, 0.04417, 1, 1, 0, 200000
0.00332, 0.00665, 0.00665, 0.00332, 0.03737, 0.03723, 0.04061, 0.04077, 1, 1, 0, 200000
0.00332, 0.00665, 0.00665, 0.00332, 0.03397, 0.03384, 0.03723, 0.03737, 1, 1, 0, 200000
0.00332, 0.00665, 0.00665, 0.00332, 0.03058, 0.03046, 0.03384, 0.03397, 1, 1, 0, 200000
0.00332, 0.00665, 0.00665, 0.00332, 0.02718, 0.02707, 0.03046, 0.03058, 1, 1, 0, 200000
0.00332, 0.00665, 0.00665, 0.00332, 0.02378, 0.02369, 0.02707, 0.02718, 1, 1, 0, 200000
0.00332, 0.00665, 0.00665, 0.00332, 0.02038, 0.02031, 0.02369, 0.02378, 1, 1, 0, 200000
0.00332, 0.00665, 0.00665, 0.00332, 0.01699, 0.01692, 0.02031, 0.02038, 1, 1, 0, 200000
0.00332, 0.00665, 0.00665, 0.00332, 0.01359, 0.01354, 0.01692, 0.01699, 1, 1, 0, 200000
0.00332, 0.00665, 0.00665, 0.00332, 0.01019, 0.01015, 0.01354, 0.01359, 1, 1, 0, 200000
0.00332, 0.00665, 0.00665, 0.00332, 0.00679, 0.00677, 0.01015, 0.01019, 1, 1, 0, 200000
0.00332, 0.00665, 0.00665, 0.00332, 0.0034, 0.00338, 0.00677, 0.00679, 1, 1, 0, 200000
0.00332, 0.00665, 0.00665, 0.00332, 0, 0, 0.00338, 0.0034, 1, 1, 0, 200000
0.00332, 0.00665, 0.00665, 0.00332, -0.0034, -0.00338, 0, 0, 1, 1, 0, 200000
0.00665, 0.00999, 0.00999, 0.00665, 0.10153, 0.10113, 0.1045, 0.10492, 1, 1, 0, 200000
0.00665, 0.00999, 0.00999, 0.00665, 0.09815, 0.09776, 0.10113, 0.10153, 1, 1, 0, 200000
0.00665, 0.00999, 0.00999, 0.00665, 0.09476, 0.09439, 0.09776, 0.09815, 1, 1, 0, 200000
0.00665, 0.00999, 0.00999, 0.00665, 0.09138, 0.09102, 0.09439, 0.09476, 1, 1, 0, 200000
0.00665, 0.00999, 0.00999, 0.00665, 0.08799, 0.08765, 0.09102, 0.09138, 1, 1, 0, 200000
0.00665, 0.00999, 0.00999, 0.00665, 0.08461, 0.08427, 0.08765, 0.08799, 1, 1, 0, 200000
0.00665, 0.00999, 0.00999, 0.00665, 0.08122, 0.0809, 0.08427, 0.08461, 1, 1, 0, 200000
0.00665, 0.00999, 0.00999, 0.00665, 0.07784, 0.07753, 0.0809, 0.08122, 1, 1, 0, 200000
0.00665, 0.00999, 0.00999, 0.00665, 0.07446, 0.07416, 0.07753, 0.07784, 1, 1, 0, 200000
0.00665, 0.00999, 0.00999, 0.00665, 0.07107, 0.07079, 0.07416, 0.07446, 1, 1, 0, 200000
0.00665, 0.00999, 0.00999, 0.00665, 0.06769, 0.06742, 0.07079, 0.07107, 1, 1, 0, 200000
0.00665, 0.00999, 0.00999, 0.00665, 0.0643, 0.06405, 0.06742, 0.06769, 1, 1, 0, 200000
0.00665, 0.00999, 0.00999, 0.00665, 0.06092, 0.06068, 0.06405, 0.0643, 1, 1, 0, 200000
0.00665, 0.00999, 0.00999, 0.00665, 0.05753, 0.05731, 0.06068, 0.06092, 1, 1, 0, 200000
0.00665, 0.00999, 0.00999, 0.00665, 0.05415, 0.05394, 0.05731, 0.05753, 1, 1, 0, 200000
0.00665, 0.00999, 0.00999, 0.00665, 0.05077, 0.05056, 0.05394, 0.05415, 1, 1, 0, 200000
0.00665, 0.00999, 0.00999, 0.00665, 0.04738, 0.04719, 0.05056, 0.05077, 1, 1, 0, 200000
0.00665, 0.00999, 0.00999, 0.00665, 0.044, 0.04382, 0.04719, 0.04738, 1, 1, 0, 200000
0.00665, 0.00999, 0.00999, 0.00665, 0.04061, 0.04045, 0.04382, 0.044, 1, 1, 0, 200000
0.00665, 0.00999, 0.00999, 0.00665, 0.03723, 0.03708, 0.04045, 0.04061, 1, 1, 0, 200000
0.00665, 0.00999, 0.00999, 0.00665, 0.03384, 0.03371, 0.03708, 0.03723, 1, 1, 0, 200000
0.00665, 0.00999, 0.00999, 0.00665, 0.03046, 0.03034, 0.03371, 0.03384, 1, 1, 0, 200000
0.00665, 0.00999, 0.00999, 0.00665, 0.02707, 0.02697, 0.03034, 0.03046, 1, 1, 0, 200000
0.00665, 0.00999, 0.00999, 0.00665, 0.02369, 0.0236, 0.02697, 0.02707, 1, 1, 0, 200000
0.00665, 0.00999, 0.00999, 0.00665, 0.02031, 0.02023, 0.0236, 0.02369, 1, 1, 0, 200000
0.00665, 0.00999, 0.00999, 0.00665, 0.01692, 0.01685, 0.02023, 0.02031, 1, 1, 0, 200000
0.00665, 0.00999, 0.00999, 0.00665, 0.01354, 0.01348, 0.01685, 0.01692, 1, 1, 0, 200000
0.00665, 0.00999, 0.00999, 0.00665, 0.01015, 0.01011, 0.01348, 0.01354, 1, 1, 0, 200000
0.00665, 0.00999, 0.00999, 0.00665, 0.00677, 0.00674, 0.01011, 0.01015, 1, 1, 0, 200000
0.00665, 0.00999, 0.00999, 0.00665, 0.00338, 0.00337, 0.00674, 0.00677, 1, 1, 0, 200000
0.00665, 0.00999, 0.00999, 0.00665, 0, 0, 0.00337, 0.00338, 1, 1, 0, 200000
0.00665, 0.00999, 0.00999, 0.00665, -0.00338, -0.00337, 0, 0, 1, 1, 0, 200000
0.00999, 0.01332, 0.01332, 0.00999, 0.10113, 0.10072, 0.10407, 0.1045, 1, 1, 0, 200000
0.00999, 0.01332, 0.01332, 0.00999, 0.09776, 0.09736, 0.10072, 0.10113, 1, 1, 0, 200000
0.00999, 0.01332, 0.01332, 0.00999, 0.09439, 0.094, 0.09736, 0.09776, 1, 1, 0, 200000
0.00999, 0.01332, 0.01332, 0.00999, 0.09102, 0.09065, 0.094, 0.09439, 1, 1, 0, 200000
0.00999, 0.01332, 0.01332, 0.00999, 0.08765, 0.08729, 0.09065, 0.09102, 1, 1, 0, 200000
0.00999, 0.01332, 0.01332, 0.00999, 0.08427, 0.08393, 0.08729, 0.08765, 1, 1, 0, 200000
0.00999, 0.01332, 0.01332, 0.00999, 0.0809, 0.08057, 0.08393, 0.08427, 1, 1, 0, 200000
0.00999, 0.01332, 0.01332, 0.00999, 0.07753, 0.07722, 0.08057, 0.0809, 1, 1, 0, 200000
0.00999, 0.01332, 0.01332, 0.00999, 0.07416, 0.07386, 0.07722, 0.07753, 1, 1, 0, 200000
0.00999, 0.01332, 0.01332, 0.00999, 0.07079, 0.0705, 0.07386, 0.07416, 1, 1, 0, 200000
0.00999, 0.01332, 0.01332, 0.00999, 0.06742, 0.06714, 0.0705, 0.07079, 1, 1, 0, 200000
0.00999, 0.01332, 0.01332, 0.00999, 0.06405, 0.06379, 0.06714, 0.06742, 1, 1, 0, 200000
0.00999, 0.01332, 0.01332, 0.00999, 0.06068, 0.06043, 0.06379, 0.06405, 1, 1, 0, 200000
0.00999, 0.01332, 0.01332, 0.00999, 0.05731, 0.05707, 0.06043, 0.06068, 1, 1, 0, 200000
0.00999, 0.01332, 0.01332, 0.00999, 0.05394, 0.05372, 0.05707, 0.05731, 1, 1, 0, 200000
0.00999, 0.01332, 0.01332, 0.00999, 0.05056, 0.05036, 0.05372, 0.05394, 1, 1, 0, 200000
0.00999, 0.01332, 0.01332, 0.00999, 0.04719, 0.047, 0.05036, 0.05056, 1, 1, 0, 200000
0.00999, 0.01332, 0.01332, 0.00999, 0.04382, 0.04364, 0.047, 0.04719, 1, 1, 0, 200000
0.00999, 0.01332, 0.01332, 0.00999, 0.04045, 0.04029, 0.04364, 0.04382, 1, 1, 0, 200000
0.00999, 0.01332, 0.01332, 0.00999, 0.03708, 0.03693, 0.04029, 0.04045, 1, 1, 0, 200000
0.00999, 0.01332, 0.01332, 0.00999, 0.03371, 0.03357, 0.03693, 0.03708, 1, 1, 0, 200000
0.00999, 0.01332, 0.01332, 0.00999, 0.03034, 0.03022, 0.03357, 0.03371, 1, 1, 0, 200000
0.00999, 0.01332, 0.01332, 0.00999, 0.02697, 0.02686, 0.03022, 0.03034, 1, 1, 0, 200000
0.00999, 0.01332, 0.01332, 0.00999, 0.0236, 0.0235, 0.02686, 0.02697, 1, 1, 0, 200000
0.00999, 0.01332, 0.01332, 0.00999, 0.02023, 0.02014, 0.0235, 0.0236, 1, 1, 0, 200000
0.00999, 0.01332, 0.01332, 0.00999, 0.01685, 0.01679, 0.02014, 0.02023, 1, 1, 0, 200000
0.00999, 0.01332, 0.01332, 0.00999, 0.01348, 0.01343, 0.01679, 0.01685, 1, 1, 0, 200000
0.00999, 0.01332, 0.01332, 0.00999, 0.01011, 0.01007, 0.01343, 0.01348, 1, 1, 0, 200000
0.00999, 0.01332, 0.01332, 0.00999, 0.00674, 0.00671, 0.01007, 0.01011, 1, 1, 0, 200000
0.00999, 0.01332, 0.01332, 0.00999, 0.00337, 0.00336, 0.00671, 0.00674, 1, 1, 0, 200000
0.00999, 0.01332, 0.01332, 0.00999, 0, 0, 0.00336, 0.00337, 1, 1, 0, 200000
0.00999, 0.01332, 0.01332, 0.00999, -0.00337, -0.00336, 0, 0, 1, 1, 0, 200000
0.01332, 0.01665, 0.01665, 0.01332, 0.10072, 0.1003, 0.10364, 0.10407, 1, 1, 0, 200000
0.01332, 0.01665, 0.01665, 0.01332, 0.09736, 0.09695, 0.1003, 0.10072, 1, 1, 0, 200000
0.01332, 0.01665, 0.01665, 0.01332, 0.094, 0.09361, 0.09695, 0.09736, 1, 1, 0, 200000
0.01332, 0.01665, 0.01665, 0.01332, 0.09065, 0.09027, 0.09361, 0.094, 1, 1, 0, 200000
0.01332, 0.01665, 0.01665, 0.01332, 0.08729, 0.08692, 0.09027, 0.09065, 1, 1, 0, 200000
0.01332, 0.01665, 0.01665, 0.01332, 0.08393, 0.08358, 0.08692, 0.08729, 1, 1, 0, 200000
0.01332, 0.01665, 0.01665, 0.01332, 0.08057, 0.08024, 0.08358, 0.08393, 1, 1, 0, 200000
0.01332, 0.01665, 0.01665, 0.01332, 0.07722, 0.07689, 0.08024, 0.08057, 1, 1, 0, 200000
0.01332, 0.01665, 0.01665, 0.01332, 0.07386, 0.07355, 0.07689, 0.07722, 1, 1, 0, 200000
0.01332, 0.01665, 0.01665, 0.01332, 0.0705, 0.07021, 0.07355, 0.07386, 1, 1, 0, 200000
0.01332, 0.01665, 0.01665, 0.01332, 0.06714, 0.06686, 0.07021, 0.0705, 1, 1, 0, 200000
0.01332, 0.01665, 0.01665, 0.01332, 0.06379, 0.06352, 0.06686, 0.06714, 1, 1, 0, 200000
0.01332, 0.01665, 0.01665, 0.01332, 0.06043, 0.06018, 0.06352, 0.06379, 1, 1, 0, 200000
0.01332, 0.01665, 0.01665, 0.01332, 0.05707, 0.05684, 0.06018, 0.06043, 1, 1, 0, 200000
0.01332, 0.01665, 0.01665, 0.01332, 0.05372, 0.05349, 0.05684, 0.05707, 1, 1, 0, 200000
0.01332, 0.01665, 0.01665, 0.01332, 0.05036, 0.05015, 0.05349, 0.05372, 1, 1, 0, 200000
0.01332, 0.01665, 0.01665, 0.01332, 0.047, 0.04681, 0.05015, 0.05036, 1, 1, 0, 200000
0.01332, 0.01665, 0.01665, 0.01332, 0.04364, 0.04346, 0.04681, 0.047, 1, 1, 0, 200000
0.01332, 0.01665, 0.01665, 0.01332, 0.04029, 0.04012, 0.04346, 0.04364, 1, 1, 0, 200000
0.01332, 0.01665, 0.01665, 0.01332, 0.03693, 0.03678, 0.04012, 0.04029, 1, 1, 0, 200000
0.01332, 0.01665, 0.01665, 0.01332, 0.03357, 0.03343, 0.03678, 0.03693, 1, 1, 0, 200000
0.01332, 0.01665, 0.01665, 0.01332, 0.03022, 0.03009, 0.03343, 0.03357, 1, 1, 0, 200000
0.01332, 0.01665, 0.01665, 0.01332, 0.02686, 0.02675, 0.03009, 0.03022, 1, 1, 0, 200000
0.01332, 0.01665, 0.01665, 0.01332, 0.0235, 0.0234, 0.02675, 0.02686, 1, 1, 0, 200000
0.01332, 0.01665, 0.01665, 0.01332, 0.02014, 0.02006, 0.0234, 0.0235, 1, 1, 0, 200000
0.01332, 0.01665, 0.01665, 0.01332, 0.01679, 0.01672, 0.02006, 0.02014, 1, 1, 0, 200000
0.01332, 0.01665, 0.01665, 0.01332, 0.01343, 0.01337, 0.01672, 0.01679, 1, 1, 0, 200000
0.01332, 0.01665, 0.01665, 0.01332, 0.01007, 0.01003, 0.01337, 0.01343, 1, 1, 0, 200000
0.01332, 0.01665, 0.01665, 0.01332, 0.00671, 0.00669, 0.01003, 0.01007, 1, 1, 0, 200000
0.01332, 0.01665, 0.01665, 0.01332, 0.00336, 0.00334, 0.00669, 0.00671, 1, 1, 0, 200000
0.01332, 0.01665, 0.01665, 0.01332, 0, 0, 0.00334, 0.00336, 1, 1, 0, 200000
0.01332, 0.01665, 0.01665, 0.01332, -0.00336, -0.00334, 0, 0, 1, 1, 0, 200000
0.01665, 0.01999, 0.01999, 0.01665, 0.1003, 0.09987, 0.1032, 0.10364, 1, 1, 0, 200000
0.01665, 0.01999, 0.01999, 0.01665, 0.09695, 0.09654, 0.09987, 0.1003, 1, 1, 0, 200000
0.01665, 0.01999, 0.01999, 0.01665, 0.09361, 0.09321, 0.09654, 0.09695, 1, 1, 0, 200000
0.01665, 0.01999, 0.01999, 0.01665, 0.09027, 0.08988, 0.09321, 0.09361, 1, 1, 0, 200000
0.01665, 0.01999, 0.01999, 0.01665, 0.08692, 0.08655, 0.08988, 0.09027, 1, 1, 0, 200000
0.01665, 0.01999, 0.01999, 0.01665, 0.08358, 0.08322, 0.08655, 0.08692, 1, 1, 0, 200000
0.01665, 0.01999, 0.01999, 0.01665, 0.08024, 0.0799, 0.08322, 0.08358, 1, 1, 0, 200000
0.01665, 0.01999, 0.01999, 0.01665, 0.07689, 0.07657, 0.0799, 0.08024, 1, 1, 0, 200000
0.01665, 0.01999, 0.01999, 0.01665, 0.07355, 0.07324, 0.07657, 0.07689, 1, 1, 0, 200000
0.01665, 0.01999, 0.01999, 0.01665, 0.07021, 0.06991, 0.07324, 0.07355, 1, 1, 0, 200000
0.01665, 0.01999, 0.01999, 0.01665, 0.06686, 0.06658, 0.06991, 0.07021, 1, 1, 0, 200000
0.01665, 0.01999, 0.01999, 0.01665, 0.06352, 0.06325, 0.06658, 0.06686, 1, 1, 0, 200000
0.01665, 0.01999, 0.01999, 0.01665, 0.06018, 0.05992, 0.06325, 0.06352, 1, 1, 0, 200000
0.01665, 0.01999, 0.01999, 0.01665, 0.05684, 0.05659, 0.05992, 0.06018, 1, 1, 0, 200000
0.01665, 0.01999, 0.01999, 0.01665, 0.05349, 0.05326, 0.05659, 0.05684, 1, 1, 0, 200000
0.01665, 0.01999, 0.01999, 0.01665, 0.05015, 0.04993, 0.05326, 0.05349, 1, 1, 0, 200000
0.01665, 0.01999, 0.01999, 0.01665, 0.04681, 0.04661, 0.04993, 0.05015, 1, 1, 0, 200000
0.01665, 0.01999, 0.01999, 0.01665, 0.04346, 0.04328, 0.04661, 0.04681, 1, 1, 0, 200000
0.01665, 0.01999, 0.01999, 0.01665, 0.04012, 0.03995, 0.04328, 0.04346, 1, 1, 0, 200000
0.01665, 0.01999, 0.01999, 0.01665, 0.03678, 0.03662, 0.03995, 0.04012, 1, 1, 0, 200000
0.01665, 0.01999, 0.01999, 0.01665, 0.03343, 0.03329, 0.03662, 0.03678, 1, 1, 0, 200000
0.01665, 0.01999, 0.01999, 0.01665, 0.03009, 0.02996, 0.03329, 0.03343, 1, 1, 0, 200000
0.01665, 0.01999, 0.01999, 0.01665, 0.02675, 0.02663, 0.02996, 0.03009, 1, 1, 0, 200000
0.01665, 0.01999, 0.01999, 0.01665, 0.0234, 0.0233, 0.02663, 0.02675, 1, 1, 0, 200000
0.01665, 0.01999, 0.01999, 0.01665, 0.02006, 0.01997, 0.0233, 0.0234, 1, 1, 0, 200000
0.01665, 0.01999, 0.01999, 0.01665, 0.01672, 0.01664, 0.01997, 0.02006, 1, 1, 0, 200000
0.01665, 0.01999, 0.01999, 0.01665, 0.01337, 0.01332, 0.01664, 0.01672, 1, 1, 0, 200000
0.01665, 0.01999, 0.01999, 0.01665, 0.01003, 0.00999, 0.01332, 0.01337, 1, 1, 0, 200000
0.01665, 0.01999, 0.01999, 0.01665, 0.00669, 0.00666, 0.00999, 0.01003, 1, 1, 0, 200000
0.01665, 0.01999, 0.01999, 0.01665, 0.00334, 0.00333, 0.00666, 0.00669, 1, 1, 0, 200000
0.01665, 0.01999, 0.01999, 0.01665, 0, 0, 0.00333, 0.00334, 1, 1, 0, 200000
0.01665, 0.01999, 0.01999, 0.01665, -0.00334, -0.00333, 0, 0, 1, 1, 0, 200000
0.01999, 0.02332, 0.02332, 0.01999, 0.09987, 0.09943, 0.10275, 0.1032, 1, 1, 0, 200000
0.01999, 0.02332, 0.02332, 0.01999, 0.09654, 0.09612, 0.09943, 0.09987, 1, 1, 0, 200000
0.01999, 0.02332, 0.02332, 0.01999, 0.09321, 0.09281, 0.09612, 0.09654, 1, 1, 0, 200000
0.01999, 0.02332, 0.02332, 0.01999, 0.08988, 0.08949, 0.09281, 0.09321, 1, 1, 0, 200000
0.01999, 0.02332, 0.02332, 0.01999, 0.08655, 0.08618, 0.08949, 0.08988, 1, 1, 0, 200000
0.01999, 0.02332, 0.02332, 0.01999, 0.08322, 0.08286, 0.08618, 0.08655, 1, 1, 0, 200000
0.01999, 0.02332, 0.02332, 0.01999, 0.0799, 0.07955, 0.08286, 0.08322, 1, 1, 0, 200000
0.01999, 0.02332, 0.02332, 0.01999, 0.07657, 0.07623, 0.07955, 0.0799, 1, 1, 0, 200000
0.01999, 0.02332, 0.02332, 0.01999, 0.07324, 0.07292, 0.07623, 0.07657, 1, 1, 0, 200000
0.01999, 0.02332, 0.02332, 0.01999, 0.06991, 0.0696, 0.07292, 0.07324, 1, 1, 0, 200000
0.01999, 0.02332, 0.02332, 0.01999, 0.06658, 0.06629, 0.0696, 0.06991, 1, 1, 0, 200000
0.01999, 0.02332, 0.02332, 0.01999, 0.06325, 0.06298, 0.06629, 0.06658, 1, 1, 0, 200000
0.01999, 0.02332, 0.02332, 0.01999, 0.05992, 0.05966, 0.06298, 0.06325, 1, 1, 0, 200000
0.01999, 0.02332, 0.02332, 0.01999, 0.05659, 0.05635, 0.05966, 0.05992, 1, 1, 0, 200000
0.01999, 0.02332, 0.02332, 0.01999, 0.05326, 0.05303, 0.05635, 0.05659, 1, 1, 0, 200000
0.01999, 0.02332, 0.02332, 0.01999, 0.04993, 0.04972, 0.05303, 0.05326, 1, 1, 0, 200000
0.01999, 0.02332, 0.02332, 0.01999, 0.04661, 0.0464, 0.04972, 0.04993, 1, 1, 0, 200000
0.01999, 0.02332, 0.02332, 0.01999, 0.04328, 0.04309, 0.0464, 0.04661, 1, 1, 0, 200000
0.01999, 0.02332, 0.02332, 0.01999, 0.03995, 0.03977, 0.04309, 0.04328, 1, 1, 0, 200000
0.01999, 0.02332, 0.02332, 0.01999, 0.03662, 0.03646, 0.03977, 0.03995, 1, 1, 0, 200000
0.01999, 0.02332, 0.02332, 0.01999, 0.03329, 0.03314, 0.03646, 0.03662, 1, 1, 0, 200000
0.01999, 0.02332, 0.02332, 0.01999, 0.02996, 0.02983, 0.03314, 0.03329, 1, 1, 0, 200000
0.01999, 0.02332, 0.02332, 0.01999, 0.02663, 0.02652, 0.02983, 0.02996, 1, 1, 0, 200000
0.01999, 0.02332, 0.02332, 0.01999, 0.0233, 0.0232, 0.02652, 0.02663, 1, 1, 0, 200000
0.01999, 0.02332, 0.02332, 0.01999, 0.01997, 0.01989, 0.0232, 0.0233, 1, 1, 0, 200000
0.01999, 0.02332, 0.02332, 0.01999, 0.01664, 0.01657, 0.01989, 0.01997, 1, 1, 0, 200000
0.01999, 0.02332, 0.02332, 0.01999, 0.01332, 0.01326, 0.01657, 0.01664, 1, 1, 0, 200000
0.01999, 0.02332, 0.02332, 0.01999, 0.00999, 0.00994, 0.01326, 0.01332, 1, 1, 0, 200000
0.01999, 0.02332, 0.02332, 0.01999, 0.00666, 0.00663, 0.00994, 0.00999, 1, 1, 0, 200000
0.01999, 0.02332, 0.02332, 0.01999, 0.00333, 0.00331, 0.00663, 0.00666, 1, 1, 0, 200000
0.01999, 0.02332, 0.02332, 0.01999, 0, 0, 0.00331, 0.00333, 1, 1, 0, 200000
0.01999, 0.02332, 0.02332, 0.01999, -0.00333, -0.00331, 0, 0, 1, 1, 0, 200000
0.02332, 0.02665, 0.02665, 0.02332, 0.09943, 0.09899, 0.10229, 0.10275, 1, 1, 0, 200000
0.02332, 0.02665, 0.02665, 0.02332, 0.09612, 0.09569, 0.09899, 0.09943, 1, 1, 0, 200000
0.02332, 0.02665, 0.02665, 0.02332, 0.09281, 0.0924, 0.09569, 0.09612, 1, 1, 0, 200000
0.02332, 0.02665, 0.02665, 0.02332, 0.08949, 0.0891, 0.0924, 0.09281, 1, 1, 0, 200000
0.02332, 0.02665, 0.02665, 0.02332, 0.08618, 0.0858, 0.0891, 0.08949, 1, 1, 0, 200000
0.02332, 0.02665, 0.02665, 0.02332, 0.08286, 0.0825, 0.0858, 0.08618, 1, 1, 0, 200000
0.02332, 0.02665, 0.02665, 0.02332, 0.07955, 0.0792, 0.0825, 0.08286, 1, 1, 0, 200000
0.02332, 0.02665, 0.02665, 0.02332, 0.07623, 0.0759, 0.0792, 0.07955, 1, 1, 0, 200000
0.02332, 0.02665, 0.02665, 0.02332, 0.07292, 0.0726, 0.0759, 0.07623, 1, 1, 0, 200000
0.02332, 0.02665, 0.02665, 0.02332, 0.0696, 0.0693, 0.0726, 0.07292, 1, 1, 0, 200000
0.02332, 0.02665, 0.02665, 0.02332, 0.06629, 0.066, 0.0693, 0.0696, 1, 1, 0, 200000
0.02332, 0.02665, 0.02665, 0.02332, 0.06298, 0.0627, 0.066, 0.06629, 1, 1, 0, 200000
0.02332, 0.02665, 0.02665, 0.02332, 0.05966, 0.0594, 0.0627, 0.06298, 1, 1, 0, 200000
0.02332, 0.02665, 0.02665, 0.02332, 0.05635, 0.0561, 0.0594, 0.05966, 1, 1, 0, 200000
0.02332, 0.02665, 0.02665, 0.02332, 0.05303, 0.0528, 0.0561, 0.05635, 1, 1, 0, 200000
0.02332, 0.02665, 0.02665, 0.02332, 0.04972, 0.0495, 0.0528, 0.05303, 1, 1, 0, 200000
0.02332, 0.02665, 0.02665, 0.02332, 0.0464, 0.0462, 0.0495, 0.04972, 1, 1, 0, 200000
0.02332, 0.02665, 0.02665, 0.02332, 0.04309, 0.0429, 0.0462, 0.0464, 1, 1, 0, 200000
0.02332, 0.02665, 0.02665, 0.02332, 0.03977, 0.0396, 0.0429, 0.04309, 1, 1, 0, 200000
0.02332, 0.02665, 0.02665, 0.02332, 0.03646, 0.0363, 0.0396, 0.03977, 1, 1, 0, 200000
0.02332, 0.02665, 0.02665, 0.02332, 0.03314, 0.033, 0.0363, 0.03646, 1, 1, 0, 200000
0.02332, 0.02665, 0.02665, 0.02332, 0.02983, 0.0297, 0.033, 0.03314, 1, 1, 0, 200000
0.02332, 0.02665, 0.02665, 0.02332, 0.02652, 0.0264, 0.0297, 0.02983, 1, 1, 0, 200000
0.02332, 0.02665, 0.02665, 0.02332, 0.0232, 0.0231, 0.0264, 0.02652, 1, 1, 0, 200000
0.02332, 0.02665, 0.02665, 0.02332, 0.01989, 0.0198, 0.0231, 0.0232, 1, 1, 0, 200000
0.02332, 0.02665, 0.02665, 0.02332, 0.01657, 0.0165, 0.0198, 0.01989, 1, 1, 0, 200000
0.02332, 0.02665, 0.02665, 0.02332, 0.01326, 0.0132, 0.0165, 0.01657, 1, 1, 0, 200000
0.02332, 0.02665, 0.02665, 0.02332, 0.00994, 0.0099, 0.0132, 0.01326, 1, 1, 0, 200000
0.02332, 0.02665, 0.02665, 0.02332, 0.00663, 0.0066, 0.0099, 0.00994, 1, 1, 0, 200000
0.02332, 0.02665, 0.02665, 0.02332, 0.00331, 0.0033, 0.0066, 0.00663, 1, 1, 0, 200000
0.02332, 0.02665, 0.02665, 0.02332, 0, 0, 0.0033, 0.00331, 1, 1, 0, 200000
0.02332, 0.02665, 0.02665, 0.02332, -0.00331, -0.0033, 0, 0, 1, 1, 0, 200000
0.02665, 0.02999, 0.02999, 0.02665, 0.09899, 0.09855, 0.10184, 0.10229, 1, 1, 0, 200000
0.02665, 0.02999, 0.02999, 0.02665, 0.09569, 0.09527, 0.09855, 0.09899, 1, 1, 0, 200000
0.02665, 0.02999, 0.02999, 0.02665, 0.0924, 0.09198, 0.09527, 0.09569, 1, 1, 0, 200000
0.02665, 0.02999, 0.02999, 0.02665, 0.0891, 0.0887, 0.09198, 0.0924, 1, 1, 0, 200000
0.02665, 0.02999, 0.02999, 0.02665, 0.0858, 0.08541, 0.0887, 0.0891, 1, 1, 0, 200000
0.02665, 0.02999, 0.02999, 0.02665, 0.0825, 0.08213, 0.08541, 0.0858, 1, 1, 0, 200000
0.02665, 0.02999, 0.02999, 0.02665, 0.0792, 0.07884, 0.08213, 0.0825, 1, 1, 0, 200000
0.02665, 0.02999, 0.02999, 0.02665, 0.0759, 0.07556, 0.07884, 0.0792, 1, 1, 0, 200000
0.02665, 0.02999, 0.02999, 0.02665, 0.0726, 0.07227, 0.07556, 0.0759, 1, 1, 0, 200000
0.02665, 0.02999, 0.02999, 0.02665, 0.0693, 0.06899, 0.07227, 0.0726, 1, 1, 0, 200000
0.02665, 0.02999, 0.02999, 0.02665, 0.066, 0.0657, 0.06899, 0.0693, 1, 1, 0, 200000
0.02665, 0.02999, 0.02999, 0.02665, 0.0627, 0.06242, 0.0657, 0.066, 1, 1, 0, 200000
0.02665, 0.02999, 0.02999, 0.02665, 0.0594, 0.05913, 0.06242, 0.0627, 1, 1, 0, 200000
0.02665, 0.02999, 0.02999, 0.02665, 0.0561, 0.05585, 0.05913, 0.0594, 1, 1, 0, 200000
0.02665, 0.02999, 0.02999, 0.02665, 0.0528, 0.05256, 0.05585, 0.0561, 1, 1, 0, 200000
0.02665, 0.02999, 0.02999, 0.02665, 0.0495, 0.04928, 0.05256, 0.0528, 1, 1, 0, 200000
0.02665, 0.02999, 0.02999, 0.02665, 0.0462, 0.04599, 0.04928, 0.0495, 1, 1, 0, 200000
0.02665, 0.02999, 0.02999, 0.02665, 0.0429, 0.04271, 0.04599, 0.0462, 1, 1, 0, 200000
0.02665, 0.02999, 0.02999, 0.02665, 0.0396, 0.03942, 0.04271, 0.0429, 1, 1, 0, 200000
0.02665, 0.02999, 0.02999, 0.02665, 0.0363, 0.03614, 0.03942, 0.0396, 1, 1, 0, 200000
0.02665, 0.02999, 0.02999, 0.02665, 0.033, 0.03285, 0.03614, 0.0363, 1, 1, 0, 200000
0.02665, 0.02999, 0.02999, 0.02665, 0.0297, 0.02957, 0.03285, 0.033, 1, 1, 0, 200000
0.02665, 0.02999, 0.02999, 0.02665, 0.0264, 0.02628, 0.02957, 0.0297, 1, 1, 0, 200000
0.02665, 0.02999, 0.02999, 0.02665, 0.0231, 0.023, 0.02628, 0.0264, 1, 1, 0, 200000
0.02665, 0.02999, 0.02999, 0.02665, 0.0198, 0.01971, 0.023, 0.0231, 1, 1, 0, 200000
0.02665, 0.02999, 0.02999, 0.02665, 0.0165, 0.01643, 0.01971, 0.0198, 1, 1, 0, 200000
0.02665, 0.02999, 0.02999, 0.02665, 0.0132, 0.01314, 0.01643, 0.0165, 1, 1, 0, 200000
0.02665, 0.02999, 0.02999, 0.02665, 0.0099, 0.00986, 0.01314, 0.0132, 1, 1, 0, 200000
0.02665, 0.02999, 0.02999, 0.02665, 0.0066, 0.00657, 0.00986, 0.0099, 1, 1, 0, 200000
0.02665, 0.02999, 0.02999, 0.02665, 0.0033, 0.00329, 0.00657, 0.0066, 1, 1, 0, 200000
0.02665, 0.02999, 0.02999, 0.02665, 0, 0, 0.00329, 0.0033, 1, 1, 0, 200000
0.02665, 0.02999, 0.02999, 0.02665, -0.0033, -0.00329, 0, 0, 1, 1, 0, 200000
0.02999, 0.03332, 0.03332, 0.02999, 0.09855, 0.0981, 0.10137, 0.10184, 1, 1, 0, 200000
0.02999, 0.03332, 0.03332, 0.02999, 0.09527, 0.09483, 0.0981, 0.09855, 1, 1, 0, 200000
0.02999, 0.03332, 0.03332, 0.02999, 0.09198, 0.09156, 0.09483, 0.09527, 1, 1, 0, 200000
0.02999, 0.03332, 0.03332, 0.02999, 0.0887, 0.08829, 0.09156, 0.09198, 1, 1, 0, 200000
0.02999, 0.03332, 0.03332, 0.02999, 0.08541, 0.08502, 0.08829, 0.0887, 1, 1, 0, 200000
0.02999, 0.03332, 0.03332, 0.02999, 0.08213, 0.08175, 0.08502, 0.08541, 1, 1, 0, 200000
0.02999, 0.03332, 0.03332, 0.02999, 0.07884, 0.07848, 0.08175, 0.08213, 1, 1, 0, 200000
0.02999, 0.03332, 0.03332, 0.02999, 0.07556, 0.07521, 0.07848, 0.07884, 1, 1, 0, 200000
0.02999, 0.03332, 0.03332, 0.02999, 0.07227, 0.07194, 0.07521, 0.07556, 1, 1, 0, 200000
0.02999, 0.03332, 0.03332, 0.02999, 0.06899, 0.06867, 0.07194, 0.07227, 1, 1, 0, 200000
0.02999, 0.03332, 0.03332, 0.02999, 0.0657, 0.0654, 0.06867, 0.06899, 1, 1, 0, 200000
0.02999, 0.03332, 0.03332, 0.02999, 0.06242, 0.06213, 0.0654, 0.0657, 1, 1, 0, 200000
0.02999, 0.03332, 0.03332, 0.02999, 0.05913, 0.05886, 0.06213, 0.06242, 1, 1, 0, 200000
0.02999, 0.03332, 0.03332, 0.02999, 0.05585, 0.05559, 0.05886, 0.05913, 1, 1, 0, 200000
0.02999, 0.03332, 0.03332, 0.02999, 0.05256, 0.05232, 0.05559, 0.05585, 1, 1, 0, 200000
0.02999, 0.03332, 0.03332, 0.02999, 0.04928, 0.04905, 0.05232, 0.05256, 1, 1, 0, 200000
0.02999, 0.03332, 0.03332, 0.02999, 0.04599, 0.04578, 0.04905, 0.04928, 1, 1, 0, 200000
0.02999, 0.03332, 0.03332, 0.02999, 0.04271, 0.04251, 0.04578, 0.04599, 1, 1, 0, 200000
0.02999, 0.03332, 0.03332, 0.02999, 0.03942, 0.03924, 0.04251, 0.04271, 1, 1, 0, 200000
0.02999, 0.03332, 0.03332, 0.02999, 0.03614, 0.03597, 0.03924, 0.03942, 1, 1, 0, 200000
0.02999, 0.03332, 0.03332, 0.02999, 0.03285, 0.0327, 0.03597, 0.03614, 1, 1, 0, 200000
0.02999, 0.03332, 0.03332, 0.02999, 0.02957, 0.02943, 0.0327, 0.03285, 1, 1, 0, 200000
0.02999, 0.03332, 0.03332, 0.02999, 0.02628, 0.02616, 0.02943, 0.02957, 1, 1, 0, 200000
0.02999, 0.03332, 0.03332, 0.02999, 0.023, 0.02289, 0.02616, 0.02628, 1, 1, 0, 200000
0.02999, 0.03332, 0.03332, 0.02999, 0.01971, 0.01962, 0.02289, 0.023, 1, 1, 0, 200000
0.02999, 0.03332, 0.03332, 0.02999, 0.01643, 0.01635, 0.01962, 0.01971, 1, 1, 0, 200000
0.02999, 0.03332, 0.03332, 0.02999, 0.01314, 0.01308, 0.01635, 0.01643, 1, 1, 0, 200000
0.02999, 0.03332, 0.03332, 0.02999, 0.00986, 0.00981, 0.01308, 0.01314, 1, 1, 0, 200000