-0.067, 0, 0, -0.067, 1.917, 1.886, 2, 2.033, 2.12019, 2257.69, -2.43969, 4.34432e+06
-0.067, 0, 0, -0.067, 1.801, 1.772, 1.886, 1.917, 2.21228, 2280.86, 10.0825, 4.26933e+06
-0.067, 0, 0, -0.067, 1.685, 1.657, 1.772, 1.801, 2.11422, 2339.51, 34.8487, 4.64869e+06
-0.067, 0, 0, -0.067, 1.569, 1.543, 1.657, 1.685, 2.10001, 2408.35, 32.1625, 4.95522e+06
-0.067, 0, 0, -0.067, 1.452, 1.429, 1.543, 1.569, 2.12003, 2463.52, 8.60838, 5.14554e+06
-0.067, 0, 0, -0.067, 1.336, 1.314, 1.429, 1.452, 2.14052, 2494.44, 3.87903, 5.23429e+06
-0.067, 0, 0, -0.067, 1.22, 1.2, 1.314, 1.336, 2.14385, 2503.5, 1.70779, 5.26658e+06
-0.067, 0, 0, -0.067, 1.104, 1.086, 1.2, 1.22, 2.14537, 2504.47, -7.73932, 5.26518e+06
-0.067, 0, 0, -0.067, 0.988, 0.972, 1.086, 1.104, 2.14907, 2507.8, -14.2754, 5.26892e+06
-0.067, 0, 0, -0.067, 0.871, 0.857, 0.972, 0.988, 2.15226, 2512.62, -7.23458, 5.28641e+06
-0.067, 0, 0, -0.067, 0.755, 0.743, 0.857, 0.871, 2.1539, 2515.35, -8.7603, 5.29732e+06
-0.067, 0, 0, -0.067, 0.639, 0.629, 0.743, 0.755, 2.15549, 2515.95, -2.56802, 5.29598e+06
-0.067, 0, 0, -0.067, 0.523, 0.514, 0.629, 0.639, 2.15513, 2514.83, -13.1453, 5.29031e+06
-0.067, 0, 0, -0.067, 0.407, 0.4, 0.514, 0.523, 2.149, 2509.13, -10.3953, 5.28001e+06
-0.067, 0, 0, -0.067, 0.29, 0.286, 0.4, 0.407, 2.14301, 2502.91, -16.1168, 5.26778e+06
-0.067, 0, 0, -0.067, 0.174, 0.171, 0.286, 0.29, 2.1433, 2501.61, -30.4573, 5.26274e+06
-0.067, 0, 0, -0.067, 0.058, 0.057, 0.171, 0.174, 2.13567, 2486.95, -30.0075, 5.21771e+06
-0.067, 0, 0, -0.067, -0.058, -0.057, 0.057, 0.058, 2.1191, 2465.8, -9.52901, 5.15709e+06
-0.067, 0, 0, -0.067, -0.174, -0.171, -0.057, -0.058, 2.12659, 2470.88, -17.7536, 5.17064e+06
-0.067, 0, 0, -0.067, -0.29, -0.286, -0.171, -0.174, 2.13551, 2485.37, -19.9662, 5.20918e+06
-0.067, 0, 0, -0.067, -0.407, -0.4, -0.286, -0.29, 2.1477, 2497.06, -19.1953, 5.23381e+06
-0.067, 0, 0, -0.067, -0.523, -0.514, -0.4, -0.407, 2.1499, 2500.3, -15.4833, 5.24357e+06
-0.067, 0, 0, -0.067, -0.639, -0.629, -0.514, -0.523, 2.15108, 2501.4, -18.8125, 5.24472e+06
-0.067, 0, 0, -0.067, -0.755, -0.743, -0.629, -0.639, 2.1528, 2503.16, -24.6473, 5.24796e+06
-0.067, 0, 0, -0.067, -0.871, -0.857, -0.743, -0.755, 2.15173, 2502.35, -13.095, 5.24882e+06
-0.067, 0, 0, -0.067, -0.988, -0.972, -0.857, -0.871, 2.15034, 2504.04, -26.7486, 5.25888e+06
-0.067, 0, 0, -0.067, -1.104, -1.086, -0.972, -0.988, 2.14754, 2502.12, -24.8631, 5.25423e+06
-0.067, 0, 0, -0.067, -1.22, -1.2, -1.086, -1.104, 2.14357, 2495.36, -32.6367, 5.23463e+06
-0.067, 0, 0, -0.067, -1.336, -1.314, -1.2, -1.22, 2.14027, 2488.49, -32.6984, 5.2114e+06
-0.067, 0, 0, -0.067, -1.452, -1.429, -1.314, -1.336, 2.13389, 2476.21, -38.287, 5.17554e+06
-0.067, 0, 0, -0.067, -1.569, -1.543, -1.429, -1.452, 2.1246, 2456, -45.5437, 5.11209e+06
-0.067, 0, 0, -0.067, -1.685, -1.657, -1.543, -1.569, 2.10989, 2411.5, -47.3397, 4.95483e+06
-0.067, 0, 0, -0.067, -1.801, -1.772, -1.657, -1.685, 2.11974, 2335.34, -66.1637, 4.62902e+06
-0.067, 0, 0, -0.067, -1.917, -1.886, -1.772, -1.801, 2.23986, 2284.74, -16.9844, 4.2383e+06
-0.067, 0, 0, -0.067, -2.033, -2, -1.886, -1.917, 2.1266, 2251.28, 0.653863, 4.30459e+06
0, 0.066, 0.066, 0, 2, 1.967, 2.079, 2.114, 2.12019, 2257.69, 2.43969, 4.34432e+06
0, 0.066, 0.066, 0, 1.886, 1.855, 1.967, 2, 2.12019, 2257.69, -2.43969, 4.34432e+06
0, 0.066, 0.066, 0, 1.772, 1.742, 1.855, 1.886, 2.21228, 2280.86, 10.0825, 4.26933e+06
0, 0.066, 0.066, 0, 1.657, 1.63, 1.742, 1.772, 2.11422, 2339.51, 34.8487, 4.64869e+06
0, 0.066, 0.066, 0, 1.543, 1.517, 1.63, 1.657, 2.10001, 2408.35, 32.1625, 4.95522e+06
0, 0.066, 0.066, 0, 1.429, 1.405, 1.517, 1.543, 2.12003, 2463.52, 8.60838, 5.14554e+06
0, 0.066, 0.066, 0, 1.314, 1.293, 1.405, 1.429, 2.14052, 2494.44, 3.87903, 5.23429e+06
0, 0.066, 0.066, 0, 1.2, 1.18, 1.293, 1.314, 2.14385, 2503.5, 1.70779, 5.26658e+06
0, 0.066, 0.066, 0, 1.086, 1.068, 1.18, 1.2, 2.14537, 2504.47, -7.73932, 5.26518e+06
0, 0.066, 0.066, 0, 0.972, 0.955, 1.068, 1.086, 2.14907, 2507.8, -14.2754, 5.26892e+06
0, 0.066, 0.066, 0, 0.857, 0.843, 0.955, 0.972, 2.15226, 2512.62, -7.23458, 5.28641e+06
0, 0.066, 0.066, 0, 0.743, 0.731, 0.843, 0.857, 2.1539, 2515.35, -8.7603, 5.29732e+06
0, 0.066, 0.066, 0, 0.629, 0.618, 0.731, 0.743, 2.15549, 2515.95, -2.56802, 5.29598e+06
0, 0.066, 0.066, 0, 0.514, 0.506, 0.618, 0.629, 2.15513, 2514.83, -13.1453, 5.29031e+06
0, 0.066, 0.066, 0, 0.4, 0.393, 0.506, 0.514, 2.149, 2509.13, -10.3953, 5.28001e+06
0, 0.066, 0.066, 0, 0.286, 0.281, 0.393, 0.4, 2.14301, 2502.91, -16.1168, 5.26778e+06
0, 0.066, 0.066, 0, 0.171, 0.169, 0.281, 0.286, 2.1433, 2501.61, -30.4573, 5.26274e+06
0, 0.066, 0.066, 0, 0.057, 0.056, 0.169, 0.171, 2.13567, 2486.95, -30.0075, 5.21771e+06
0, 0.066, 0.066, 0, -0.057, -0.056, 0.056, 0.057, 2.1191, 2465.8, -9.52901, 5.15709e+06
0, 0.066, 0.066, 0, -0.171, -0.169, -0.056, -0.057, 2.12659, 2470.88, -17.7536, 5.17064e+06
0, 0.066, 0.066, 0, -0.286, -0.281, -0.169, -0.171, 2.13551, 2485.37, -19.9662, 5.20918e+06
0, 0.066, 0.066, 0, -0.4, -0.393, -0.281, -0.286, 2.1477, 2497.06, -19.1953, 5.23381e+06
0, 0.066, 0.066, 0, -0.514, -0.506, -0.393, -0.4, 2.1499, 2500.3, -15.4833, 5.24357e+06
0, 0.066, 0.066, 0, -0.629, -0.618, -0.506, -0.514, 2.15108, 2501.4, -18.8125, 5.24472e+06
0, 0.066, 0.066, 0, -0.743, -0.731, -0.618, -0.629, 2.1528, 2503.16, -24.6473, 5.24796e+06
0, 0.066, 0.066, 0, -0.857, -0.843, -0.731, -0.743, 2.15173, 2502.35, -13.095, 5.24882e+06
0, 0.066, 0.066, 0, -0.972, -0.955, -0.843, -0.857, 2.15034, 2504.04, -26.7486, 5.25888e+06
0, 0.066, 0.066, 0, -1.086, -1.068, -0.955, -0.972, 2.14754, 2502.12, -24.8631, 5.25423e+06
0, 0.066, 0.066, 0, -1.2, -1.18, -1.068, -1.086, 2.14357, 2495.36, -32.6367, 5.23463e+06
0, 0.066, 0.066, 0, -1.314, -1.293, -1.18, -1.2, 2.14027, 2488.49, -32.6984, 5.2114e+06
0, 0.066, 0.066, 0, -1.429, -1.405, -1.293, -1.314, 2.13389, 2476.21, -38.287, 5.17554e+06
0, 0.066, 0.066, 0, -1.543, -1.517, -1.405, -1.429, 2.1246, 2456, -45.5437, 5.11209e+06
0, 0.066, 0.066, 0, -1.657, -1.63, -1.517, -1.543, 2.10989, 2411.5, -47.3397, 4.95483e+06
0, 0.066, 0.066, 0, -1.772, -1.742, -1.63, -1.657, 2.11974, 2335.34, -66.1637, 4.62902e+06
0, 0.066, 0.066, 0, -1.886, -1.855, -1.742, -1.772, 2.23986, 2284.74, -16.9844, 4.2383e+06
0, 0.066, 0.066, 0, -2, -1.967, -1.855, -1.886, 2.1266, 2251.28, 0.653863, 4.30459e+06
0, 0.066, 0.066, 0, -2.114, -2.079, -1.967, -2, 2.1266, 2251.28, -0.653863, 4.30459e+06
0.066, 0.133, 0.133, 0.066, 1.967, 1.934, 2.045, 2.079, 3.02918, 2185.23, -0.38248, 2.21416e+06
0.066, 0.133, 0.133, 0.066, 1.855, 1.824, 1.934, 1.967, 3.02918, 2185.23, 0.38248, 2.21416e+06
0.066, 0.133, 0.133, 0.066, 1.742, 1.713, 1.824, 1.855, 3.10691, 2175.64, 8.01405, 2.19007e+06
0.066, 0.133, 0.133, 0.066, 1.63, 1.603, 1.713, 1.742, 3.0309, 2270.42, 21.5229, 2.28979e+06
0.066, 0.133, 0.133, 0.066, 1.517, 1.492, 1.603, 1.63, 3.02131, 2353.2, 9.379, 2.36455e+06
0.066, 0.133, 0.133, 0.066, 1.405, 1.382, 1.492, 1.517, 3.03704, 2405.99, 6.50989, 2.40274e+06
0.066, 0.133, 0.133, 0.066, 1.293, 1.271, 1.382, 1.405, 3.05268, 2431.47, 4.98484, 2.4196e+06
0.066, 0.133, 0.133, 0.066, 1.18, 1.161, 1.271, 1.293, 3.0555, 2440.52, 3.61159, 2.42679e+06
0.066, 0.133, 0.133, 0.066, 1.068, 1.05, 1.161, 1.18, 3.05788, 2441.13, -2.15251, 2.42983e+06
0.066, 0.133, 0.133, 0.066, 0.955, 0.94, 1.05, 1.068, 3.06015, 2441.97, -4.30709, 2.43157e+06
0.066, 0.133, 0.133, 0.066, 0.843, 0.829, 0.94, 0.955, 3.06432, 2447.98, 7.14471, 2.4325e+06
0.066, 0.133, 0.133, 0.066, 0.731, 0.718, 0.829, 0.843, 3.06234, 2449.18, 1.95406, 2.43047e+06
0.066, 0.133, 0.133, 0.066, 0.618, 0.608, 0.718, 0.731, 3.06571, 2450.28, 0.903227, 2.43109e+06
0.066, 0.133, 0.133, 0.066, 0.506, 0.497, 0.608, 0.618, 3.06346, 2447.38, 9.51928, 2.43044e+06
0.066, 0.133, 0.133, 0.066, 0.393, 0.387, 0.497, 0.506, 3.06156, 2446.16, 11.2605, 2.43233e+06
0.066, 0.133, 0.133, 0.066, 0.281, 0.276, 0.387, 0.393, 3.05664, 2442.52, 0.571399, 2.43043e+06
0.066, 0.133, 0.133, 0.066, 0.169, 0.166, 0.276, 0.281, 3.0541, 2439.47, -0.0238379, 2.42441e+06
0.066, 0.133, 0.133, 0.066, 0.056, 0.055, 0.166, 0.169, 3.0412, 2422.47, 1.96101, 2.40479e+06
0.066, 0.133, 0.133, 0.066, -0.056, -0.055, 0.055, 0.056, 2.99932, 2385.48, -6.93072, 2.37038e+06
0.066, 0.133, 0.133, 0.066, -0.169, -0.166, -0.055, -0.056, 3.02932, 2405.41, -34.8279, 2.38487e+06
0.066, 0.133, 0.133, 0.066, -0.281, -0.276, -0.166, -0.169, 3.04179, 2420.33, -33.8236, 2.4078e+06
0.066, 0.133, 0.133, 0.066, -0.393, -0.387, -0.276, -0.281, 3.05471, 2430.2, -38.7457, 2.41451e+06
0.066, 0.133, 0.133, 0.066, -0.506, -0.497, -0.387, -0.393, 3.06069, 2435.73, -37.3804, 2.41845e+06
0.066, 0.133, 0.133, 0.066, -0.618, -0.608, -0.497, -0.506, 3.05952, 2434.57, -40.9562, 2.4186e+06
0.066, 0.133, 0.133, 0.066, -0.731, -0.718, -0.608, -0.618, 3.06039, 2435.44, -33.1457, 2.41758e+06
0.066, 0.133, 0.133, 0.066, -0.843, -0.829, -0.718, -0.731, 3.06617, 2439.92, -33.9684, 2.42249e+06
0.066, 0.133, 0.133, 0.066, -0.955, -0.94, -0.829, -0.843, 3.06175, 2440.15, -35.4993, 2.42385e+06
0.066, 0.133, 0.133, 0.066, -1.068, -1.05, -0.94, -0.955, 3.05725, 2436.9, -35.0974, 2.42183e+06
0.066, 0.133, 0.133, 0.066, -1.18, -1.161, -1.05, -1.068, 3.05489, 2431.81, -38.9636, 2.41836e+06
0.066, 0.133, 0.133, 0.066, -1.293, -1.271, -1.161, -1.18, 3.04963, 2423.69, -40.7444, 2.41245e+06
0.066, 0.133, 0.133, 0.066, -1.405, -1.382, -1.271, -1.293, 3.04432, 2413.47, -44.6848, 2.40258e+06
0.066, 0.133, 0.133, 0.066, -1.517, -1.492, -1.382, -1.405, 3.03783, 2396.18, -48.337, 2.38803e+06
0.066, 0.133, 0.133, 0.066, -1.63, -1.603, -1.492, -1.517, 3.03203, 2355.78, -46.6707, 2.36083e+06
0.066, 0.133, 0.133, 0.066, -1.742, -1.713, -1.603, -1.63, 3.04228, 2270.95, -43.7448, 2.29302e+06
0.066, 0.133, 0.133, 0.066, -1.855, -1.824, -1.713, -1.742, 3.13338, 2171.51, -19.7135, 2.18386e+06
0.066, 0.133, 0.133, 0.066, -1.967, -1.934, -1.824, -1.855, 3.03992, 2177.58, -4.19437, 2.2131e+06
0.066, 0.133, 0.133, 0.066, -2.079, -2.045, -1.934, -1.967, 3.03992, 2177.58, 4.19437, 2.2131e+06
0.133, 0.2, 0.2, 0.133, 1.934, 1.902, 2.011, 2.045, 3.72686, 1596.46, 0.102066, 1.12608e+06
0.133, 0.2, 0.2, 0.133, 1.824, 1.793, 1.902, 1.934, 3.72686, 1596.46, -0.102066, 1.12608e+06
0.133, 0.2, 0.2, 0.133, 1.713, 1.685, 1.793, 1.824, 3.74993, 1580.06, -1.48986, 1.12189e+06
0.133, 0.2, 0.2, 0.133, 1.603, 1.576, 1.685, 1.713, 3.78168, 1655.12, 2.41798, 1.13814e+06
0.133, 0.2, 0.2, 0.133, 1.492, 1.467, 1.576, 1.603, 3.82641, 1712.1, 2.98026, 1.14552e+06
0.133, 0.2, 0.2, 0.133, 1.382, 1.359, 1.467, 1.492, 3.86033, 1743.23, 1.05691, 1.14775e+06
0.133, 0.2, 0.2, 0.133, 1.271, 1.25, 1.359, 1.382, 3.88055, 1757.61, 0.00554227, 1.14957e+06
0.133, 0.2, 0.2, 0.133, 1.161, 1.141, 1.25, 1.271, 3.88641, 1763.35, -0.0685475, 1.15012e+06
0.133, 0.2, 0.2, 0.133, 1.05, 1.033, 1.141, 1.161, 3.88873, 1764.55, -3.64225, 1.15146e+06
0.133, 0.2, 0.2, 0.133, 0.94, 0.924, 1.033, 1.05, 3.88998, 1765.24, -2.76739, 1.15291e+06
0.133, 0.2, 0.2, 0.133, 0.829, 0.815, 0.924, 0.94, 3.89506, 1767.45, 2.44529, 1.1522e+06
0.133, 0.2, 0.2, 0.133, 0.718, 0.707, 0.815, 0.829, 3.89553, 1767.8, 0.517218, 1.15079e+06
0.133, 0.2, 0.2, 0.133, 0.608, 0.598, 0.707, 0.718, 3.89437, 1767.05, 3.43935, 1.15094e+06
0.133, 0.2, 0.2, 0.133, 0.497, 0.489, 0.598, 0.608, 3.89307, 1766.82, 2.14817, 1.15141e+06
0.133, 0.2, 0.2, 0.133, 0.387, 0.38, 0.489, 0.497, 3.89468, 1767.52, 5.44653, 1.15081e+06
0.133, 0.2, 0.2, 0.133, 0.276, 0.272, 0.38, 0.387, 3.89216, 1766.4, 4.34742, 1.15028e+06
0.133, 0.2, 0.2, 0.133, 0.166, 0.163, 0.272, 0.276, 3.8848, 1762.24, 5.04775, 1.14853e+06
0.133, 0.2, 0.2, 0.133, 0.055, 0.054, 0.163, 0.166, 3.86578, 1748.47, 8.36425, 1.14281e+06
0.133, 0.2, 0.2, 0.133, -0.055, -0.054, 0.054, 0.055, 3.82297, 1727.29, -3.26068, 1.13975e+06
0.133, 0.2, 0.2, 0.133, -0.166, -0.163, -0.054, -0.055, 3.84212, 1733.64, -20.3594, 1.13766e+06
0.133, 0.2, 0.2, 0.133, -0.276, -0.272, -0.163, -0.166, 3.87018, 1751.09, -19.5081, 1.14599e+06
0.133, 0.2, 0.2, 0.133, -0.387, -0.38, -0.272, -0.276, 3.88067, 1755.95, -21.1437, 1.14702e+06
0.133, 0.2, 0.2, 0.133, -0.497, -0.489, -0.38, -0.387, 3.88628, 1758.13, -22.4151, 1.14675e+06
0.133, 0.2, 0.2, 0.133, -0.608, -0.598, -0.489, -0.497, 3.88625, 1758.81, -19.0594, 1.14798e+06
0.133, 0.2, 0.2, 0.133, -0.718, -0.707, -0.598, -0.608, 3.8839, 1757.68, -17.8888, 1.14828e+06
0.133, 0.2, 0.2, 0.133, -0.829, -0.815, -0.707, -0.718, 3.89286, 1760.95, -20.2224, 1.14788e+06
0.133, 0.2, 0.2, 0.133, -0.94, -0.924, -0.815, -0.829, 3.89314, 1763.25, -14.705, 1.15001e+06
0.133, 0.2, 0.2, 0.133, -1.05, -1.033, -0.924, -0.94, 3.88799, 1761.05, -16.2696, 1.15014e+06
0.133, 0.2, 0.2, 0.133, -1.161, -1.141, -1.033, -1.05, 3.88256, 1757.71, -16.6559, 1.14921e+06
0.133, 0.2, 0.2, 0.133, -1.271, -1.25, -1.141, -1.161, 3.87549, 1753.08, -18.2442, 1.14818e+06
0.133, 0.2, 0.2, 0.133, -1.382, -1.359, -1.25, -1.271, 3.86751, 1746.19, -20.1504, 1.14606e+06
0.133, 0.2, 0.2, 0.133, -1.492, -1.467, -1.359, -1.382, 3.85571, 1735, -22.4759, 1.14359e+06
0.133, 0.2, 0.2, 0.133, -1.603, -1.576, -1.467, -1.492, 3.83298, 1710.43, -23.9713, 1.14177e+06
0.133, 0.2, 0.2, 0.133, -1.713, -1.685, -1.576, -1.603, 3.79135, 1656.99, -20.8606, 1.13771e+06
0.133, 0.2, 0.2, 0.133, -1.824, -1.793, -1.685, -1.713, 3.75868, 1574.95, -15.4092, 1.12423e+06
0.133, 0.2, 0.2, 0.133, -1.934, -1.902, -1.793, -1.824, 3.73209, 1594.43, -3.19548, 1.13161e+06
0.133, 0.2, 0.2, 0.133, -2.045, -2.011, -1.902, -1.934, 3.73209, 1594.43, 3.19548, 1.13161e+06
0.2, 0.266, 0.266, 0.2, 1.902, 1.87, 1.977, 2.011, 3.37017, 956.083, 0.203957, 778509
0.2, 0.266, 0.266, 0.2, 1.793, 1.764, 1.87, 1.902, 3.37017, 956.083, -0.203957, 778509
0.2, 0.266, 0.266, 0.2, 1.685, 1.657, 1.764, 1.793, 3.37782, 950.967, -1.65772, 777945
0.2, 0.266, 0.266, 0.2, 1.576, 1.55, 1.657, 1.685, 3.43807, 984.391, 1.02772, 783307
0.2, 0.266, 0.266, 0.2, 1.467, 1.443, 1.55, 1.576, 3.48585, 1007.28, 1.00591, 786447
0.2, 0.266, 0.266, 0.2, 1.359, 1.336, 1.443, 1.467, 3.51364, 1018.89, 0.0592456, 788452
0.2, 0.266, 0.266, 0.2, 1.25, 1.229, 1.336, 1.359, 3.52879, 1024.45, -0.421303, 790128
0.2, 0.266, 0.266, 0.2, 1.141, 1.122, 1.229, 1.25, 3.53402, 1026.93, 0.392961, 790572
0.2, 0.266, 0.266, 0.2, 1.033, 1.015, 1.122, 1.141, 3.53483, 1027.33, -2.92791, 790444
0.2, 0.266, 0.266, 0.2, 0.924, 0.908, 1.015, 1.033, 3.53727, 1028.33, -1.97783, 791367
0.2, 0.266, 0.266, 0.2, 0.815, 0.802, 0.908, 0.924, 3.53906, 1028.51, -0.0581809, 791479
0.2, 0.266, 0.266, 0.2, 0.707, 0.695, 0.802, 0.815, 3.53915, 1028.22, 1.165, 791359
0.2, 0.266, 0.266, 0.2, 0.598, 0.588, 0.695, 0.707, 3.53882, 1028.21, 1.49822, 791282
0.2, 0.266, 0.266, 0.2, 0.489, 0.481, 0.588, 0.598, 3.53908, 1028.28, 1.29712, 791209
0.2, 0.266, 0.266, 0.2, 0.38, 0.374, 0.481, 0.489, 3.53828, 1027.87, 2.93705, 790826
0.2, 0.266, 0.266, 0.2, 0.272, 0.267, 0.374, 0.38, 3.53659, 1027.26, 3.87994, 790431
0.2, 0.266, 0.266, 0.2, 0.163, 0.16, 0.267, 0.272, 3.53054, 1025.29, 4.29844, 789468
0.2, 0.266, 0.266, 0.2, 0.054, 0.053, 0.16, 0.163, 3.51155, 1018.05, 6.68826, 786368
0.2, 0.266, 0.266, 0.2, -0.054, -0.053, 0.053, 0.054, 3.48899, 1011.59, -1.6806, 783323
0.2, 0.266, 0.266, 0.2, -0.163, -0.16, -0.053, -0.054, 3.49789, 1013.09, -11.6958, 784459
0.2, 0.266, 0.266, 0.2, -0.272, -0.267, -0.16, -0.163, 3.52057, 1021.03, -11.4267, 787684
0.2, 0.266, 0.266, 0.2, -0.38, -0.374, -0.267, -0.272, 3.52708, 1022.86, -12.2323, 788536
0.2, 0.266, 0.266, 0.2, -0.489, -0.481, -0.374, -0.38, 3.52873, 1023.16, -12.3172, 788698
0.2, 0.266, 0.266, 0.2, -0.598, -0.588, -0.481, -0.489, 3.53084, 1023.89, -11.4331, 789007
0.2, 0.266, 0.266, 0.2, -0.707, -0.695, -0.588, -0.598, 3.53051, 1023.92, -10.9294, 789289
0.2, 0.266, 0.266, 0.2, -0.815, -0.802, -0.695, -0.707, 3.5334, 1024.4, -11.0162, 789509
0.2, 0.266, 0.266, 0.2, -0.924, -0.908, -0.802, -0.815, 3.53818, 1026.47, -7.91263, 790499
0.2, 0.266, 0.266, 0.2, -1.033, -1.015, -0.908, -0.924, 3.5349, 1025.99, -6.98989, 790459
0.2, 0.266, 0.266, 0.2, -1.141, -1.122, -1.015, -1.033, 3.52973, 1024.46, -8.08676, 789727
0.2, 0.266, 0.266, 0.2, -1.25, -1.229, -1.122, -1.141, 3.5249, 1022.69, -8.86254, 788923
0.2, 0.266, 0.266, 0.2, -1.359, -1.336, -1.229, -1.25, 3.5175, 1019.42, -9.89802, 787651
0.2, 0.266, 0.266, 0.2, -1.467, -1.443, -1.336, -1.359, 3.50655, 1014.27, -11.2798, 786081
0.2, 0.266, 0.266, 0.2, -1.576, -1.55, -1.443, -1.467, 3.48503, 1004.32, -12.0671, 784554
0.2, 0.266, 0.266, 0.2, -1.685, -1.657, -1.55, -1.576, 3.44392, 984.328, -11.2486, 782904
0.2, 0.266, 0.266, 0.2, -1.793, -1.764, -1.657, -1.685, 3.38263, 950.885, -7.31821, 779988
0.2, 0.266, 0.266, 0.2, -1.902, -1.87, -1.764, -1.793, 3.37368, 957.602, -1.37872, 781465
0.2, 0.266, 0.266, 0.2, -2.011, -1.977, -1.87, -1.902, 3.37368, 957.602, 1.37872, 781465
0.266, 0.333, 0.333, 0.266, 1.87, 1.839, 1.944, 1.977, 2.64618, 599.427, 0.251369, 626471
0.266, 0.333, 0.333, 0.266, 1.764, 1.734, 1.839, 1.87, 2.64618, 599.427, -0.251369, 626471
0.266, 0.333, 0.333, 0.266, 1.657, 1.629, 1.734, 1.764, 2.65598, 599.248, -1.36504, 626058
0.266, 0.333, 0.333, 0.266, 1.55, 1.524, 1.629, 1.657, 2.69287, 612.27, 0.224175, 629011
0.266, 0.333, 0.333, 0.266, 1.443, 1.419, 1.524, 1.55, 2.71812, 620.908, 0.179545, 631227
0.266, 0.333, 0.333, 0.266, 1.336, 1.314, 1.419, 1.443, 2.73192, 625.423, -0.362149, 632888
0.266, 0.333, 0.333, 0.266, 1.229, 1.209, 1.314, 1.336, 2.73944, 627.672, -0.770347, 634141
0.266, 0.333, 0.333, 0.266, 1.122, 1.103, 1.209, 1.229, 2.74297, 628.824, -0.371989, 634686
0.266, 0.333, 0.333, 0.266, 1.015, 0.998, 1.103, 1.122, 2.74332, 628.811, -0.773634, 634750
0.266, 0.333, 0.333, 0.266, 0.908, 0.893, 0.998, 1.015, 2.74402, 629.171, -0.645462, 634855
0.266, 0.333, 0.333, 0.266, 0.802, 0.788, 0.893, 0.908, 2.74487, 629.3, -0.478894, 635163
0.266, 0.333, 0.333, 0.266, 0.695, 0.683, 0.788, 0.802, 2.74468, 629.165, -0.716136, 635198
0.266, 0.333, 0.333, 0.266, 0.588, 0.578, 0.683, 0.695, 2.74498, 629.134, -0.55151, 635222
0.266, 0.333, 0.333, 0.266, 0.481, 0.473, 0.578, 0.588, 2.74473, 628.963, 0.836847, 635169
0.266, 0.333, 0.333, 0.266, 0.374, 0.368, 0.473, 0.481, 2.7436, 628.661, 1.96832, 634925
0.266, 0.333, 0.333, 0.266, 0.267, 0.263, 0.368, 0.374, 2.74233, 628.324, 3.00602, 634662
0.266, 0.333, 0.333, 0.266, 0.16, 0.158, 0.263, 0.267, 2.73897, 627.466, 3.47645, 633966
0.266, 0.333, 0.333, 0.266, 0.053, 0.053, 0.158, 0.16, 2.72795, 624.179, 5.48871, 631570
0.266, 0.333, 0.333, 0.266, -0.053, -0.053, 0.053, 0.053, 2.72059, 622.376, -1.18999, 629909
0.266, 0.333, 0.333, 0.266, -0.16, -0.158, -0.053, -0.053, 2.72137, 622.269, -7.54416, 630033
0.266, 0.333, 0.333, 0.266, -0.267, -0.263, -0.158, -0.16, 2.73426, 625.746, -7.85432, 632655
0.266, 0.333, 0.333, 0.266, -0.374, -0.368, -0.263, -0.267, 2.73734, 626.398, -8.14933, 633229
0.266, 0.333, 0.333, 0.266, -0.481, -0.473, -0.368, -0.374, 2.73831, 626.562, -7.71842, 633407
0.266, 0.333, 0.333, 0.266, -0.588, -0.578, -0.473, -0.481, 2.73919, 626.707, -7.2313, 633538
0.266, 0.333, 0.333, 0.266, -0.695, -0.683, -0.578, -0.588, 2.73995, 626.934, -6.55852, 633714
0.266, 0.333, 0.333, 0.266, -0.802, -0.788, -0.683, -0.695, 2.74083, 627.134, -6.44444, 633904
0.266, 0.333, 0.333, 0.266, -0.908, -0.893, -0.788, -0.802, 2.74361, 628.016, -4.87107, 634514
0.266, 0.333, 0.333, 0.266, -1.015, -0.998, -0.893, -0.908, 2.74292, 628.232, -3.31756, 634503
0.266, 0.333, 0.333, 0.266, -1.122, -1.103, -0.998, -1.015, 2.74017, 627.62, -4.70518, 633919
0.266, 0.333, 0.333, 0.266, -1.229, -1.209, -1.103, -1.122, 2.73733, 626.786, -5.13617, 633272
0.266, 0.333, 0.333, 0.266, -1.336, -1.314, -1.209, -1.229, 2.73299, 625.217, -5.90323, 632380
0.266, 0.333, 0.333, 0.266, -1.443, -1.419, -1.314, -1.336, 2.72657, 622.819, -6.69878, 631263
0.266, 0.333, 0.333, 0.266, -1.55, -1.524, -1.419, -1.443, 2.71511, 618.826, -7.17466, 630018
0.266, 0.333, 0.333, 0.266, -1.657, -1.629, -1.524, -1.55, 2.69386, 611.512, -6.46536, 628579
0.266, 0.333, 0.333, 0.266, -1.764, -1.734, -1.629, -1.657, 2.66123, 600.377, -4.34024, 627495
0.266, 0.333, 0.333, 0.266, -1.87, -1.839, -1.734, -1.764, 2.65141, 601.448, -0.747458, 628378
0.266, 0.333, 0.333, 0.266, -1.977, -1.944, -1.839, -1.87, 2.65141, 601.448, 0.747458, 628378
0.333, 0.4, 0.4, 0.333, 1.839, 1.808, 1.911, 1.944, 2.13025, 423.328, 0.125152, 541070
0.333, 0.4, 0.4, 0.333, 1.734, 1.705, 1.808, 1.839, 2.13025, 423.328, -0.125152, 541070
0.333, 0.4, 0.4, 0.333, 1.629, 1.602, 1.705, 1.734, 2.13712, 423.653, -1.18389, 540749
0.333, 0.4, 0.4, 0.333, 1.524, 1.498, 1.602, 1.629, 2.15547, 429.244, 0.0428951, 542391
0.333, 0.4, 0.4, 0.333, 1.419, 1.395, 1.498, 1.524, 2.16761, 433.055, 0.0186584, 543782
0.333, 0.4, 0.4, 0.333, 1.314, 1.292, 1.395, 1.419, 2.17455, 435.236, -0.347466, 544932
0.333, 0.4, 0.4, 0.333, 1.209, 1.188, 1.292, 1.314, 2.17841, 436.358, -0.702243, 545834
0.333, 0.4, 0.4, 0.333, 1.103, 1.085, 1.188, 1.209, 2.18034, 436.919, -0.337696, 546237
0.333, 0.4, 0.4, 0.333, 0.998, 0.982, 1.085, 1.103, 2.18039, 436.93, -0.11158, 546286
0.333, 0.4, 0.4, 0.333, 0.893, 0.878, 0.982, 0.998, 2.1803, 436.905, -0.212985, 546214
0.333, 0.4, 0.4, 0.333, 0.788, 0.775, 0.878, 0.893, 2.18094, 437.094, -0.672003, 546452
0.333, 0.4, 0.4, 0.333, 0.683, 0.672, 0.775, 0.788, 2.181, 437.099, -0.42387, 546560
0.333, 0.4, 0.4, 0.333, 0.578, 0.568, 0.672, 0.683, 2.18089, 436.988, -0.659274, 546587
0.333, 0.4, 0.4, 0.333, 0.473, 0.465, 0.568, 0.578, 2.18083, 436.876, 0.0959125, 546638
0.333, 0.4, 0.4, 0.333, 0.368, 0.362, 0.465, 0.473, 2.18027, 436.695, 1.27448, 546483
0.333, 0.4, 0.4, 0.333, 0.263, 0.258, 0.362, 0.368, 2.17943, 436.492, 2.29377, 546254
0.333, 0.4, 0.4, 0.333, 0.158, 0.155, 0.258, 0.263, 2.17786, 436.135, 2.97166, 545838
0.333, 0.4, 0.4, 0.333, 0.053, 0.052, 0.155, 0.158, 2.17199, 434.458, 4.42735, 544176
0.333, 0.4, 0.4, 0.333, -0.053, -0.052, 0.052, 0.053, 2.1686, 433.769, -1.14962, 543044
0.333, 0.4, 0.4, 0.333, -0.158, -0.155, -0.052, -0.053, 2.1687, 433.559, -5.88513, 543092
0.333, 0.4, 0.4, 0.333, -0.263, -0.258, -0.155, -0.158, 2.17551, 435.27, -5.72638, 544943
0.333, 0.4, 0.4, 0.333, -0.368, -0.362, -0.258, -0.263, 2.1768, 435.472, -5.66725, 545237
0.333, 0.4, 0.4, 0.333, -0.473, -0.465, -0.362, -0.368, 2.17731, 435.551, -5.03098, 545384
0.333, 0.4, 0.4, 0.333, -0.578, -0.568, -0.465, -0.473, 2.17769, 435.607, -4.51787, 545487
0.333, 0.4, 0.4, 0.333, -0.683, -0.672, -0.568, -0.578, 2.17802, 435.69, -4.0057, 545563
0.333, 0.4, 0.4, 0.333, -0.788, -0.775, -0.672, -0.683, 2.17844, 435.807, -3.98408, 545633
0.333, 0.4, 0.4, 0.333, -0.893, -0.878, -0.775, -0.788, 2.17983, 436.262, -3.18867, 546024
0.333, 0.4, 0.4, 0.333, -0.998, -0.982, -0.878, -0.893, 2.17981, 436.505, -1.87542, 546062
0.333, 0.4, 0.4, 0.333, -1.103, -1.085, -0.982, -0.998, 2.17846, 436.245, -2.86142, 545635
0.333, 0.4, 0.4, 0.333, -1.209, -1.188, -1.085, -1.103, 2.17678, 435.743, -3.25364, 545148
0.333, 0.4, 0.4, 0.333, -1.314, -1.292, -1.188, -1.209, 2.17443, 434.904, -3.77754, 544585
0.333, 0.4, 0.4, 0.333, -1.419, -1.395, -1.292, -1.314, 2.17081, 433.647, -4.23016, 543800
0.333, 0.4, 0.4, 0.333, -1.524, -1.498, -1.395, -1.419, 2.16505, 431.751, -4.55333, 542924
0.333, 0.4, 0.4, 0.333, -1.629, -1.602, -1.498, -1.524, 2.15524, 428.635, -4.12054, 542080
0.333, 0.4, 0.4, 0.333, -1.734, -1.705, -1.602, -1.629, 2.14074, 424.573, -2.64249, 541654
0.333, 0.4, 0.4, 0.333, -1.839, -1.808, -1.705, -1.734, 2.13464, 424.807, -0.507592, 542348
0.333, 0.4, 0.4, 0.333, -1.944, -1.911, -1.808, -1.839, 2.13464, 424.807, 0.507592, 542348
0.4, 0.466, 0.466, 0.4, 1.808, 1.778, 1.879, 1.911, 1.82875, 323.903, -0.056904, 479853
0.4, 0.466, 0.466, 0.4, 1.705, 1.676, 1.778, 1.808, 1.82875, 323.903, 0.056904, 479853
0.4, 0.466, 0.466, 0.4, 1.602, 1.575, 1.676, 1.705, 1.83144, 324.142, -0.789702, 479747
0.4, 0.466, 0.466, 0.4, 1.498, 1.473, 1.575, 1.602, 1.8398, 326.873, 0.0701085, 480842
0.4, 0.466, 0.466, 0.4, 1.395, 1.371, 1.473, 1.498, 1.84556, 328.826, 0.0252912, 481795
0.4, 0.466, 0.466, 0.4, 1.292, 1.27, 1.371, 1.395, 1.84937, 330.054, -0.272947, 482647
0.4, 0.466, 0.466, 0.4, 1.188, 1.168, 1.27, 1.292, 1.8516, 330.72, -0.496762, 483286
0.4, 0.466, 0.466, 0.4, 1.085, 1.067, 1.168, 1.188, 1.85251, 331.026, -0.364728, 483540
0.4, 0.466, 0.466, 0.4, 0.982, 0.965, 1.067, 1.085, 1.85269, 331.07, -0.525222, 483619
0.4, 0.466, 0.466, 0.4, 0.878, 0.863, 0.965, 0.982, 1.85283, 331.059, -0.927502, 483684
0.4, 0.466, 0.466, 0.4, 0.775, 0.762, 0.863, 0.878, 1.85295, 331.113, -0.162286, 483736
0.4, 0.466, 0.466, 0.4, 0.672, 0.66, 0.762, 0.775, 1.85299, 331.124, -0.15665, 483773
0.4, 0.466, 0.466, 0.4, 0.568, 0.559, 0.66, 0.672, 1.85281, 331.062, -0.331392, 483760
0.4, 0.466, 0.466, 0.4, 0.465, 0.457, 0.559, 0.568, 1.85262, 330.978, 0.132547, 483747
0.4, 0.466, 0.466, 0.4, 0.362, 0.356, 0.457, 0.465, 1.85262, 330.904, 0.549533, 483782
0.4, 0.466, 0.466, 0.4, 0.258, 0.254, 0.356, 0.362, 1.85208, 330.743, 1.68775, 483589
0.4, 0.466, 0.466, 0.4, 0.155, 0.152, 0.254, 0.258, 1.85135, 330.576, 2.58832, 483344
0.4, 0.466, 0.466, 0.4, 0.052, 0.051, 0.152, 0.155, 1.84759, 329.665, 3.56657, 482103
0.4, 0.466, 0.466, 0.4, -0.052, -0.051, 0.051, 0.052, 1.8473, 329.641, -0.21368, 481957
0.4, 0.466, 0.466, 0.4, -0.155, -0.152, -0.051, -0.052, 1.84642, 329.267, -4.70417, 481617
0.4, 0.466, 0.466, 0.4, -0.258, -0.254, -0.152, -0.155, 1.85009, 330.116, -4.18797, 482788
0.4, 0.466, 0.466, 0.4, -0.362, -0.356, -0.254, -0.258, 1.85054, 330.153, -3.7497, 482913
0.4, 0.466, 0.466, 0.4, -0.465, -0.457, -0.356, -0.362, 1.85088, 330.212, -3.14167, 483032
0.4, 0.466, 0.466, 0.4, -0.568, -0.559, -0.457, -0.465, 1.85108, 330.259, -2.75788, 483103
0.4, 0.466, 0.466, 0.4, -0.672, -0.66, -0.559, -0.568, 1.85132, 330.331, -2.05283, 483208
0.4, 0.466, 0.466, 0.4, -0.775, -0.762, -0.66, -0.672, 1.8512, 330.35, -1.55884, 483182
0.4, 0.466, 0.466, 0.4, -0.878, -0.863, -0.762, -0.775, 1.85189, 330.547, -2.05588, 483332
0.4, 0.466, 0.466, 0.4, -0.982, -0.965, -0.863, -0.878, 1.85207, 330.756, -1.02516, 483416
0.4, 0.466, 0.466, 0.4, -1.085, -1.067, -0.965, -0.982, 1.85141, 330.635, -1.64215, 483173
0.4, 0.466, 0.466, 0.4, -1.188, -1.168, -1.067, -1.085, 1.85025, 330.268, -1.92196, 482765
0.4, 0.466, 0.466, 0.4, -1.292, -1.27, -1.168, -1.188, 1.84902, 329.813, -2.43453, 482411
0.4, 0.466, 0.466, 0.4, -1.395, -1.371, -1.27, -1.292, 1.84696, 329.089, -2.6665, 481869
0.4, 0.466, 0.466, 0.4, -1.498, -1.473, -1.371, -1.395, 1.84392, 328.028, -2.86718, 481206
0.4, 0.466, 0.466, 0.4, -1.602, -1.575, -1.473, -1.498, 1.83918, 326.405, -2.62377, 480499
0.4, 0.466, 0.466, 0.4, -1.705, -1.676, -1.575, -1.602, 1.83383, 324.771, -1.64572, 480332
0.4, 0.466, 0.466, 0.4, -1.808, -1.778, -1.676, -1.705, 1.83144, 324.799, -0.390926, 480627
0.4, 0.466, 0.466, 0.4, -1.911, -1.879, -1.778, -1.808, 1.83144, 324.799, 0.390926, 480627
0.466, 0.533, 0.533, 0.466, 1.778, 1.748, 1.848, 1.879, 1.63598, 245.596, -0.131031, 421428
0.466, 0.533, 0.533, 0.466, 1.676, 1.648, 1.748, 1.778, 1.63598, 245.596, 0.131031, 421428
0.466, 0.533, 0.533, 0.466, 1.575, 1.548, 1.648, 1.676, 1.637, 245.993, -0.272694, 421601
0.466, 0.533, 0.533, 0.466, 1.473, 1.448, 1.548, 1.575, 1.6408, 247.556, 0.210387, 422416
0.466, 0.533, 0.533, 0.466, 1.371, 1.348, 1.448, 1.473, 1.64383, 248.726, 0.0833638, 423159
0.466, 0.533, 0.533, 0.466, 1.27, 1.248, 1.348, 1.371, 1.64615, 249.487, -0.142243, 423815
0.466, 0.533, 0.533, 0.466, 1.168, 1.148, 1.248, 1.27, 1.64747, 249.889, -0.20468, 424226
0.466, 0.533, 0.533, 0.466, 1.067, 1.049, 1.148, 1.168, 1.6479, 250.055, -0.349014, 424355
0.466, 0.533, 0.533, 0.466, 0.965, 0.949, 1.049, 1.067, 1.64813, 250.123, -0.387328, 424445
0.466, 0.533, 0.533, 0.466, 0.863, 0.849, 0.949, 0.965, 1.64833, 250.152, -0.448535, 424525
0.466, 0.533, 0.533, 0.466, 0.762, 0.749, 0.849, 0.863, 1.64838, 250.16, -0.158949, 424552
0.466, 0.533, 0.533, 0.466, 0.66, 0.649, 0.749, 0.762, 1.6483, 250.128, -0.332572, 424538
0.466, 0.533, 0.533, 0.466, 0.559, 0.549, 0.649, 0.66, 1.6482, 250.077, 0.0245885, 424521
0.466, 0.533, 0.533, 0.466, 0.457, 0.449, 0.549, 0.559, 1.64816, 250.045, 0.327725, 424524
0.466, 0.533, 0.533, 0.466, 0.356, 0.35, 0.449, 0.457, 1.64785, 249.958, 0.526799, 424435
0.466, 0.533, 0.533, 0.466, 0.254, 0.25, 0.35, 0.356, 1.64772, 249.89, 1.06687, 424396
0.466, 0.533, 0.533, 0.466, 0.152, 0.15, 0.25, 0.254, 1.64733, 249.759, 2.03658, 424226
0.466, 0.533, 0.533, 0.466, 0.051, 0.05, 0.15, 0.152, 1.64586, 249.565, 2.62969, 423753
0.466, 0.533, 0.533, 0.466, -0.051, -0.05, 0.05, 0.051, 1.64623, 249.68, -0.0627492, 423844
0.466, 0.533, 0.533, 0.466, -0.152, -0.15, -0.05, -0.051, 1.64511, 249.345, -3.50506, 423423
0.466, 0.533, 0.533, 0.466, -0.254, -0.25, -0.15, -0.152, 1.6467, 249.533, -2.76488, 423949
0.466, 0.533, 0.533, 0.466, -0.356, -0.35, -0.25, -0.254, 1.64689, 249.598, -2.08286, 424035
0.466, 0.533, 0.533, 0.466, -0.457, -0.449, -0.35, -0.356, 1.6471, 249.624, -1.75904, 424097
0.466, 0.533, 0.533, 0.466, -0.559, -0.549, -0.449, -0.457, 1.64733, 249.68, -1.38218, 424182
0.466, 0.533, 0.533, 0.466, -0.66, -0.649, -0.549, -0.559, 1.64739, 249.715, -1.0566, 424218
0.466, 0.533, 0.533, 0.466, -0.762, -0.749, -0.649, -0.66, 1.6473, 249.747, -0.475515, 424213
0.466, 0.533, 0.533, 0.466, -0.863, -0.849, -0.749, -0.762, 1.64738, 249.783, -0.319555, 424233
0.466, 0.533, 0.533, 0.466, -0.965, -0.949, -0.849, -0.863, 1.64752, 249.874, -0.335307, 424253
0.466, 0.533, 0.533, 0.466, -1.067, -1.049, -0.949, -0.965, 1.64722, 249.835, -0.842654, 424136
0.466, 0.533, 0.533, 0.466, -1.168, -1.148, -1.049, -1.067, 1.64661, 249.621, -1.1571, 423908
0.466, 0.533, 0.533, 0.466, -1.27, -1.248, -1.148, -1.168, 1.6459, 249.379, -1.3545, 423684
0.466, 0.533, 0.533, 0.466, -1.371, -1.348, -1.248, -1.27, 1.64462, 248.92, -1.49727, 423281
0.466, 0.533, 0.533, 0.466, -1.473, -1.448, -1.348, -1.371, 1.64279, 248.237, -1.6508, 422755
0.466, 0.533, 0.533, 0.466, -1.575, -1.548, -1.448, -1.473, 1.64036, 247.24, -1.62003, 422168
0.466, 0.533, 0.533, 0.466, -1.676, -1.648, -1.548, -1.575, 1.63811, 246.269, -0.964423, 421838