-1, 0, 0, -1, 2, 2, 2.5, 2.5, 1, 0, 0, 200000
-1, 0, 0, -1, 1.5, 1.5, 2, 2, 1, 0, 0, 200000
-1, 0, 0, -1, 1, 1, 1.5, 1.5, 1, 0, 0, 200000
-1, 0, 0, -1, 0.5, 0.5, 1, 1, 1, 0, 0, 200000
-1, 0, 0, -1, 0, 0, 0.5, 0.5, 1, 0, 0, 200000
-1, 0, 0, -1, -0.5, -0.5, 0, 0, 1, 0, 0, 200000
-1, 0, 0, -1, -1, -1, -0.5, -0.5, 1, 0, 0, 200000
-1, 0, 0, -1, -1.5, -1.5, -1, -1, 1, 0, 0, 200000
-1, 0, 0, -1, -2, -2, -1.5, -1.5, 1, 0, 0, 200000
-1, 0, 0, -1, -2.5, -2.5, -2, -2, 1, 0, 0, 200000
0, 1, 1, 0, 2.5, 2.5, 3, 3, 0.977863, 6.92947, -0.00366091, 194036
0, 1, 1, 0, 2, 2, 2.5, 2.5, 0.977863, 6.92947, 0.00366091, 194036
0, 1, 1, 0, 1.5, 1.5, 2, 2, 0.977852, 6.92658, 0.0118682, 194071
0, 1, 1, 0, 1, 1, 1.5, 1.5, 0.977897, 6.94853, -0.0169724, 194073
0, 1, 1, 0, 0.5, 0.5, 1, 1, 0.951695, 6.8318, -0.0756847, 193991
0, 1, 1, 0, 0, 0, 0.5, 0.5, 0.97766, 6.9427, -0.184937, 194075
0, 1, 1, 0, -0.5, -0.5, 0, 0, 0.975988, 6.88684, -0.161909, 194036
0, 1, 1, 0, -1, -1, -0.5, -0.5, 0.976313, 6.86346, -0.0708683, 194043
0, 1, 1, 0, -1.5, -1.5, -1, -1, 0.977122, 6.88727, -0.000973271, 194043
0, 1, 1, 0, -2, -2, -1.5, -1.5, 0.978001, 6.89175, -0.0178003, 194080
0, 1, 1, 0, -2.5, -2.5, -2, -2, 0.977589, 6.91921, -0.0309563, 194124
0, 1, 1, 0, -3, -3, -2.5, -2.5, 0.977589, 6.91921, 0.0309563, 194124
1, 2, 2, 1, 2.5, 2.5, 3, 3, 0.978421, 6.78519, -0.00163091, 193954
1, 2, 2, 1, 2, 2, 2.5, 2.5, 0.978421, 6.78519, 0.00163091, 193954
1, 2, 2, 1, 1.5, 1.5, 2, 2, 0.984401, 6.8496, 0.00240747, 194023
1, 2, 2, 1, 1, 1, 1.5, 1.5, 0.98467, 6.87877, -0.0172821, 193992
1, 2, 2, 1, 0.5, 0.5, 1, 1, 0.952796, 6.76169, -0.0388071, 194028
1, 2, 2, 1, 0, 0, 0.5, 0.5, 0.980179, 6.81761, -0.0645686, 194023
1, 2, 2, 1, -0.5, -0.5, 0, 0, 0.997161, 6.90344, -0.0664215, 194035
1, 2, 2, 1, -1, -1, -0.5, -0.5, 1.0024, 6.90537, -0.0568183, 193991
1, 2, 2, 1, -1.5, -1.5, -1, -1, 1.00053, 6.91353, -0.0505069, 194051
1, 2, 2, 1, -2, -2, -1.5, -1.5, 0.990475, 6.88933, -0.0653239, 194061
1, 2, 2, 1, -2.5, -2.5, -2, -2, 0.977956, 6.80375, -0.0572289, 194020
1, 2, 2, 1, -3, -3, -2.5, -2.5, 0.977956, 6.80375, 0.0572289, 194020
2, 3, 3, 2, 2.5, 2.5, 3, 3, 0.974478, 6.69589, 0.0181343, 193965
2, 3, 3, 2, 2, 2, 2.5, 2.5, 0.974478, 6.69589, -0.0181343, 193965
2, 3, 3, 2, 1.5, 1.5, 2, 2, 0.954269, 6.56047, -0.000527436, 193937
2, 3, 3, 2, 1, 1, 1.5, 1.5, 0.95561, 6.59107, 0.0697794, 194026
2, 3, 3, 2, 0.5, 0.5, 1, 1, 0.978518, 6.84117, 0.132061, 194062
2, 3, 3, 2, 0, 0, 0.5, 0.5, 0.970544, 6.6615, 0.102029, 194059
2, 3, 3, 2, -0.5, -0.5, 0, 0, 0.930629, 6.40015, 0.0987184, 194020
2, 3, 3, 2, -1, -1, -0.5, -0.5, 0.915332, 6.31563, 0.0994775, 194163
2, 3, 3, 2, -1.5, -1.5, -1, -1, 0.91551, 6.31669, 0.0183449, 193984
2, 3, 3, 2, -2, -2, -1.5, -1.5, 0.942801, 6.56929, -0.0888814, 194049
2, 3, 3, 2, -2.5, -2.5, -2, -2, 0.975859, 6.72958, -0.0597716, 194020
2, 3, 3, 2, -3, -3, -2.5, -2.5, 0.975859, 6.72958, 0.0597716, 194020
3, 4, 4, 3, 2.5, 2.5, 3, 3, 0.98182, 6.73734, 0.000963624, 193901
3, 4, 4, 3, 2, 2, 2.5, 2.5, 0.98182, 6.73734, -0.000963624, 193901
3, 4, 4, 3, 1.5, 1.5, 2, 2, 0.954802, 6.54926, 0.00546819, 193993
3, 4, 4, 3, 1, 1, 1.5, 1.5, 0.955477, 6.59284, 0.0242739, 194009
3, 4, 4, 3, 0.5, 0.5, 1, 1, 0.94518, 6.59046, 0.0534017, 194074
3, 4, 4, 3, 0, 0, 0.5, 0.5, 0.979357, 6.75093, 0.0309124, 194072
3, 4, 4, 3, -0.5, -0.5, 0, 0, 0.930762, 6.41469, 0.0383733, 194052
3, 4, 4, 3, -1, -1, -0.5, -0.5, 0.915191, 6.36151, 0.00216071, 193961
3, 4, 4, 3, -1.5, -1.5, -1, -1, 0.916234, 6.36924, -0.058922, 194125
3, 4, 4, 3, -2, -2, -1.5, -1.5, 0.94291, 6.62984, -0.131102, 194026
3, 4, 4, 3, -2.5, -2.5, -2, -2, 0.976509, 6.71725, -0.0736514, 194021
3, 4, 4, 3, -3, -3, -2.5, -2.5, 0.976509, 6.71725, 0.0736514, 194021
4, 5, 5, 4, 2.5, 2.5, 3, 3, 0.957156, 6.54671, -0.00670325, 193872
4, 5, 5, 4, 2, 2, 2.5, 2.5, 0.957156, 6.54671, 0.00670325, 193872
4, 5, 5, 4, 1.5, 1.5, 2, 2, 0.98313, 6.75068, -0.00471401, 193946
4, 5, 5, 4, 1, 1, 1.5, 1.5, 0.972897, 6.69337, -0.0260862, 194059
4, 5, 5, 4, 0.5, 0.5, 1, 1, 0.946626, 6.5902, 0.0179789, 194026
4, 5, 5, 4, 0, 0, 0.5, 0.5, 0.954488, 6.55889, 0.0328383, 193966
4, 5, 5, 4, -0.5, -0.5, 0, 0, 0.954319, 6.5994, 0.0692303, 194034
4, 5, 5, 4, -1, -1, -0.5, -0.5, 0.916971, 6.44343, 0.0580912, 193987
4, 5, 5, 4, -1.5, -1.5, -1, -1, 0.916813, 6.38682, -0.0778296, 194081
4, 5, 5, 4, -2, -2, -1.5, -1.5, 0.945898, 6.67031, -0.166375, 194046
4, 5, 5, 4, -2.5, -2.5, -2, -2, 0.975365, 6.62184, -0.0787675, 193969
4, 5, 5, 4, -3, -3, -2.5, -2.5, 0.975365, 6.62184, 0.0787675, 193969
5, 6, 6, 5, 2.5, 2.5, 3, 3, 0.957932, 6.5659, -0.00595558, 193932
5, 6, 6, 5, 2, 2, 2.5, 2.5, 0.957932, 6.5659, 0.00595558, 193932
5, 6, 6, 5, 1.5, 1.5, 2, 2, 0.926476, 6.44047, -0.0286852, 194042
5, 6, 6, 5, 1, 1, 1.5, 1.5, 0.953601, 6.53077, -0.0202012, 194244
5, 6, 6, 5, 0.5, 0.5, 1, 1, 0.912696, 6.37037, -0.0665322, 194098
5, 6, 6, 5, 0, 0, 0.5, 0.5, 0.95547, 6.54801, 0.00342463, 194076
5, 6, 6, 5, -0.5, -0.5, 0, 0, 0.895213, 6.27073, -0.0230056, 194183
5, 6, 6, 5, -1, -1, -0.5, -0.5, 0.923628, 6.48585, -0.0605771, 193976
5, 6, 6, 5, -1.5, -1.5, -1, -1, 0.919095, 6.45784, -0.107931, 194019
5, 6, 6, 5, -2, -2, -1.5, -1.5, 0.968976, 6.82652, -0.15618, 193995
5, 6, 6, 5, -2.5, -2.5, -2, -2, 0.976801, 6.58866, -0.0666003, 193929
5, 6, 6, 5, -3, -3, -2.5, -2.5, 0.976801, 6.58866, 0.0666003, 193929
6, 7, 7, 6, 2.5, 2.5, 3, 3, 0.927504, 6.32239, 0.00505044, 193894
6, 7, 7, 6, 2, 2, 2.5, 2.5, 0.927504, 6.32239, -0.00505044, 193894
6, 7, 7, 6, 1.5, 1.5, 2, 2, 0.927015, 6.50024, -0.0235283, 194024
6, 7, 7, 6, 1, 1, 1.5, 1.5, 0.954205, 6.49825, -0.0479028, 194019
6, 7, 7, 6, 0.5, 0.5, 1, 1, 0.913607, 6.35735, 0.00774125, 194000
6, 7, 7, 6, 0, 0, 0.5, 0.5, 0.980212, 6.69144, 0.0346512, 193960
6, 7, 7, 6, -0.5, -0.5, 0, 0, 0.895056, 6.30495, 0.00378622, 193908
6, 7, 7, 6, -1, -1, -0.5, -0.5, 0.967389, 6.76685, -0.0269839, 193928
6, 7, 7, 6, -1.5, -1.5, -1, -1, 0.92695, 6.52709, -0.047974, 193961
6, 7, 7, 6, -2, -2, -1.5, -1.5, 0.954145, 6.68071, -0.0485948, 193932
6, 7, 7, 6, -2.5, -2.5, -2, -2, 0.973994, 6.57732, -0.0335953, 193854
6, 7, 7, 6, -3, -3, -2.5, -2.5, 0.973994, 6.57732, 0.0335953, 193854
7, 8, 8, 7, 2.5, 2.5, 3, 3, 0.928081, 6.28298, -0.00973743, 193891
7, 8, 8, 7, 2, 2, 2.5, 2.5, 0.928081, 6.28298, 0.00973743, 193891
7, 8, 8, 7, 1.5, 1.5, 2, 2, 0.928235, 6.47999, 0.0282345, 193918
7, 8, 8, 7, 1, 1, 1.5, 1.5, 0.996566, 6.7545, 0.0692934, 193929
7, 8, 8, 7, 0.5, 0.5, 1, 1, 0.926841, 6.40068, 0.129331, 193965
7, 8, 8, 7, 0, 0, 0.5, 0.5, 0.920774, 6.32055, 0.107723, 193964
7, 8, 8, 7, -0.5, -0.5, 0, 0, 0.895861, 6.40483, -0.0081478, 194052
7, 8, 8, 7, -1, -1, -0.5, -0.5, 0.922759, 6.49164, -0.0459092, 193853
7, 8, 8, 7, -1.5, -1.5, -1, -1, 0.981069, 6.92546, -0.0894657, 193889
7, 8, 8, 7, -2, -2, -1.5, -1.5, 0.954453, 6.69056, -0.11146, 193844
7, 8, 8, 7, -2.5, -2.5, -2, -2, 0.993013, 6.75167, -0.058047, 193872
7, 8, 8, 7, -3, -3, -2.5, -2.5, 0.993013, 6.75167, 0.058047, 193872
8, 9, 9, 8, 2.5, 2.5, 3, 3, 0.908823, 6.27983, 0.0728274, 194222
8, 9, 9, 8, 2, 2, 2.5, 2.5, 0.908823, 6.27983, -0.0728274, 194222
8, 9, 9, 8, 1.5, 1.5, 2, 2, 0.972425, 6.86832, -0.0300399, 194001
8, 9, 9, 8, 1, 1, 1.5, 1.5, 0.902239, 6.25525, 0.0107299, 193955
8, 9, 9, 8, 0.5, 0.5, 1, 1, 0.898236, 6.39258, -0.0500421, 193985
8, 9, 9, 8, 0, 0, 0.5, 0.5, 0.921083, 6.44719, -0.09136, 193976
8, 9, 9, 8, -0.5, -0.5, 0, 0, 0.897525, 6.519, -0.0327909, 193961
8, 9, 9, 8, -1, -1, -0.5, -0.5, 0.923544, 6.59897, 0.000996281, 193990
8, 9, 9, 8, -1.5, -1.5, -1, -1, 0.915666, 6.6055, -0.0393365, 194119
8, 9, 9, 8, -2, -2, -1.5, -1.5, 0.972032, 6.87511, -0.0692207, 193833
8, 9, 9, 8, -2.5, -2.5, -2, -2, 0.938646, 6.49562, -0.0338311, 194010
8, 9, 9, 8, -3, -3, -2.5, -2.5, 0.938646, 6.49562, 0.0338311, 194010
9, 10, 10, 9, 2.5, 2.5, 3, 3, 0.908961, 6.45513, 0.0512531, 193887
9, 10, 10, 9, 2, 2, 2.5, 2.5, 0.908961, 6.45513, -0.0512531, 193887
9, 10, 10, 9, 1.5, 1.5, 2, 2, 0.944972, 6.74895, -0.0784764, 193937
9, 10, 10, 9, 1, 1, 1.5, 1.5, 0.902266, 6.45096, -0.0843937, 193926
9, 10, 10, 9, 0.5, 0.5, 1, 1, 0.899617, 6.52098, -0.034005, 193885
9, 10, 10, 9, 0, 0, 0.5, 0.5, 0.92246, 6.58401, 0.0197506, 193907
9, 10, 10, 9, -0.5, -0.5, 0, 0, 0.901239, 6.65068, -0.0371913, 193888
9, 10, 10, 9, -1, -1, -0.5, -0.5, 0.924964, 6.71057, -0.133306, 193855
9, 10, 10, 9, -1.5, -1.5, -1, -1, 0.915695, 6.69184, -0.0823443, 193825
9, 10, 10, 9, -2, -2, -1.5, -1.5, 0.956694, 6.82611, -0.0737337, 193785
9, 10, 10, 9, -2.5, -2.5, -2, -2, 0.938175, 6.58483, -0.0603151, 193743
9, 10, 10, 9, -3, -3, -2.5, -2.5, 0.938175, 6.58483, 0.0603151, 193743
10, 11, 11, 10, 2.5, 2.5, 3, 3, 0.909948, 6.61049, 0.0808583, 194000
10, 11, 11, 10, 2, 2, 2.5, 2.5, 0.909948, 6.61049, -0.0808583, 194000
10, 11, 11, 10, 1.5, 1.5, 2, 2, 0.94605, 6.80561, -0.0658256, 193807
10, 11, 11, 10, 1, 1, 1.5, 1.5, 0.903364, 6.53055, -0.0894373, 193840
10, 11, 11, 10, 0.5, 0.5, 1, 1, 0.897655, 6.52887, -0.091044, 193792
10, 11, 11, 10, 0, 0, 0.5, 0.5, 0.928842, 6.70066, -0.0795644, 193815
10, 11, 11, 10, -0.5, -0.5, 0, 0, 0.913344, 6.81431, -0.100492, 193908
10, 11, 11, 10, -1, -1, -0.5, -0.5, 0.932376, 6.81513, -0.0845728, 193915
10, 11, 11, 10, -1.5, -1.5, -1, -1, 0.917472, 6.71901, -0.0818427, 193899
10, 11, 11, 10, -2, -2, -1.5, -1.5, 0.957339, 6.86024, -0.0941527, 193843
10, 11, 11, 10, -2.5, -2.5, -2, -2, 0.941876, 6.6677, -0.0459558, 193799
10, 11, 11, 10, -3, -3, -2.5, -2.5, 0.941876, 6.6677, 0.0459558, 193799
11, 12, 12, 11, 2.5, 2.5, 3, 3, 0.911488, 6.69068, 0.0605619, 193774
11, 12, 12, 11, 2, 2, 2.5, 2.5, 0.911488, 6.69068, -0.0605619, 193774
11, 12, 12, 11, 1.5, 1.5, 2, 2, 0.91089, 6.58404, -0.119897, 193753
11, 12, 12, 11, 1, 1, 1.5, 1.5, 0.906592, 6.62169, -0.126197, 193791
11, 12, 12, 11, 0.5, 0.5, 1, 1, 0.897548, 6.58605, -0.229641, 193840
11, 12, 12, 11, 0, 0, 0.5, 0.5, 0.974534, 7.04531, -0.289572, 193838
11, 12, 12, 11, -0.5, -0.5, 0, 0, 0.970025, 7.15828, -0.221098, 193836
11, 12, 12, 11, -1, -1, -0.5, -0.5, 0.977093, 7.0887, -0.135284, 193838
11, 12, 12, 11, -1.5, -1.5, -1, -1, 0.92346, 6.77249, -0.127165, 193838
11, 12, 12, 11, -2, -2, -1.5, -1.5, 0.983554, 6.98468, -0.110607, 193787
11, 12, 12, 11, -2.5, -2.5, -2, -2, 0.973438, 6.89048, -0.0405182, 193787
11, 12, 12, 11, -3, -3, -2.5, -2.5, 0.973438, 6.89048, 0.0405182, 193787
12, 13, 13, 12, 2.5, 2.5, 3, 3, 0.916054, 6.79852, 0.0194466, 193815
12, 13, 13, 12, 2, 2, 2.5, 2.5, 0.916054, 6.79852, -0.0194466, 193815
12, 13, 13, 12, 1.5, 1.5, 2, 2, 0.910548, 6.60034, -0.0803341, 193796
12, 13, 13, 12, 1, 1, 1.5, 1.5, 0.915698, 6.74124, -0.123246, 193793
12, 13, 13, 12, 0.5, 0.5, 1, 1, 0.898574, 6.65619, -0.171431, 193780
12, 13, 13, 12, 0, 0, 0.5, 0.5, 0.917529, 6.64834, -0.213073, 194017
12, 13, 13, 12, -0.5, -0.5, 0, 0, 0.939495, 6.87376, -0.19023, 193723
12, 13, 13, 12, -1, -1, -0.5, -0.5, 0.937091, 6.70813, -0.092172, 193806
12, 13, 13, 12, -1.5, -1.5, -1, -1, 0.974502, 7.10292, -0.0332481, 193809
12, 13, 13, 12, -2, -2, -1.5, -1.5, 0.937298, 6.58666, -0.0319962, 193777
12, 13, 13, 12, -2.5, -2.5, -2, -2, 0.930561, 6.58339, -0.00781495, 193772
12, 13, 13, 12, -3, -3, -2.5, -2.5, 0.930561, 6.58339, 0.00781495, 193772
13, 14, 14, 13, 2.5, 2.5, 3, 3, 0.926157, 6.91903, 0.021339, 193736
13, 14, 14, 13, 2, 2, 2.5, 2.5, 0.926157, 6.91903, -0.021339, 193736
13, 14, 14, 13, 1.5, 1.5, 2, 2, 0.912266, 6.68022, -0.0813362, 193797
13, 14, 14, 13, 1, 1, 1.5, 1.5, 0.961544, 7.04745, -0.0785361, 193767
13, 14, 14, 13, 0.5, 0.5, 1, 1, 0.902352, 6.72367, -0.0432973, 193819
13, 14, 14, 13, 0, 0, 0.5, 0.5, 0.916823, 6.68973, -0.142212, 193783
13, 14, 14, 13, -0.5, -0.5, 0, 0, 0.94215, 6.84467, -0.126775, 193779
13, 14, 14, 13, -1, -1, -0.5, -0.5, 0.938129, 6.63747, -0.0521277, 193772
13, 14, 14, 13, -1.5, -1.5, -1, -1, 0.921851, 6.67642, -0.0359106, 193968
13, 14, 14, 13, -2, -2, -1.5, -1.5, 0.938449, 6.57897, -0.0465651, 193761
13, 14, 14, 13, -2.5, -2.5, -2, -2, 0.930872, 6.59908, -0.0478046, 193746
13, 14, 14, 13, -3, -3, -2.5, -2.5, 0.930872, 6.59908, 0.0478046, 193746
14, 15, 15, 14, 2.5, 2.5, 3, 3, 0.968174, 7.22474, -0.0155744, 193676
14, 15, 15, 14, 2, 2, 2.5, 2.5, 0.968174, 7.22474, 0.0155744, 193676
14, 15, 15, 14, 1.5, 1.5, 2, 2, 0.919446, 6.80328, 0.0709773, 193729
14, 15, 15, 14, 1, 1, 1.5, 1.5, 0.928502, 6.83947, 0.0970054, 193971
14, 15, 15, 14, 0.5, 0.5, 1, 1, 0.916848, 6.92479, 0.0826882, 193750
14, 15, 15, 14, 0, 0, 0.5, 0.5, 0.918495, 6.77548, 0.0942644, 193857
14, 15, 15, 14, -0.5, -0.5, 0, 0, 0.902521, 6.61522, 0.179606, 194062
14, 15, 15, 14, -1, -1, -0.5, -0.5, 0.906313, 6.55609, 0.198274, 193788
14, 15, 15, 14, -1.5, -1.5, -1, -1, 0.921151, 6.77138, -0.0111572, 193801
14, 15, 15, 14, -2, -2, -1.5, -1.5, 0.914965, 6.54719, -0.0621178, 193796
14, 15, 15, 14, -2.5, -2.5, -2, -2, 0.923581, 6.64734, -0.018254, 193783
14, 15, 15, 14, -3, -3, -2.5, -2.5, 0.923581, 6.64734, 0.018254, 193783
15, 16, 16, 15, 2.5, 2.5, 3, 3, 0.951726, 7.1354, 0.00303329, 193684
15, 16, 16, 15, 2, 2, 2.5, 2.5, 0.951726, 7.1354, -0.00303329, 193684
15, 16, 16, 15, 1.5, 1.5, 2, 2, 0.966533, 7.21745, -0.00879548, 193708
15, 16, 16, 15, 1, 1, 1.5, 1.5, 0.928276, 6.90554, 0.0286752, 193685
15, 16, 16, 15, 0.5, 0.5, 1, 1, 0.972369, 7.39715, 0.103411, 193725
15, 16, 16, 15, 0, 0, 0.5, 0.5, 0.923333, 6.88491, 0.154787, 193804
15, 16, 16, 15, -0.5, -0.5, 0, 0, 0.901871, 6.72524, 0.0950715, 193767
15, 16, 16, 15, -1, -1, -0.5, -0.5, 0.907824, 6.75859, 0.0595412, 194004
15, 16, 16, 15, -1.5, -1.5, -1, -1, 0.923228, 6.95776, 0.0844546, 193871
15, 16, 16, 15, -2, -2, -1.5, -1.5, 0.915363, 6.7521, 0.0506482, 193871
15, 16, 16, 15, -2.5, -2.5, -2, -2, 0.923878, 6.80742, -0.0217578, 193936
15, 16, 16, 15, -3, -3, -2.5, -2.5, 0.923878, 6.80742, 0.0217578, 193936
16, 17, 17, 16, 2.5, 2.5, 3, 3, 0.952685, 7.20793, -0.0180231, 193713
16, 17, 17, 16, 2, 2, 2.5, 2.5, 0.952685, 7.20793, 0.0180231, 193713
16, 17, 17, 16, 1.5, 1.5, 2, 2, 0.928968, 7.02652, 0.0635077, 193750
16, 17, 17, 16, 1, 1, 1.5, 1.5, 0.931093, 7.01658, 0.0337417, 193694
16, 17, 17, 16, 0.5, 0.5, 1, 1, 0.917218, 7.05205, 0.00179369, 193760
16, 17, 17, 16, 0, 0, 0.5, 0.5, 0.961072, 7.29886, 0.0470985, 193771
16, 17, 17, 16, -0.5, -0.5, 0, 0, 0.902564, 6.94716, 0.0647926, 193948
16, 17, 17, 16, -1, -1, -0.5, -0.5, 0.908148, 6.91296, -0.0269222, 193805
16, 17, 17, 16, -1.5, -1.5, -1, -1, 0.929206, 7.08641, -0.0398552, 193794
16, 17, 17, 16, -2, -2, -1.5, -1.5, 0.917354, 6.89231, -0.052064, 193841
16, 17, 17, 16, -2.5, -2.5, -2, -2, 0.925052, 6.90693, -0.0457235, 193806
16, 17, 17, 16, -3, -3, -2.5, -2.5, 0.925052, 6.90693, 0.0457235, 193806
17, 18, 18, 17, 2.5, 2.5, 3, 3, 0.976371, 7.38155, -0.0479004, 193785
17, 18, 18, 17, 2, 2, 2.5, 2.5, 0.976371, 7.38155, 0.0479004, 193785
17, 18, 18, 17, 1.5, 1.5, 2, 2, 0.929824, 7.10175, 0.0946717, 193848
17, 18, 18, 17, 1, 1, 1.5, 1.5, 0.968004, 7.38184, 0.0986753, 193809
17, 18, 18, 17, 0.5, 0.5, 1, 1, 0.917616, 7.14379, -0.010375, 193864
17, 18, 18, 17, 0, 0, 0.5, 0.5, 0.9546, 7.21053, -0.0044815, 193778
17, 18, 18, 17, -0.5, -0.5, 0, 0, 0.904007, 6.98044, 0.0907295, 193792
17, 18, 18, 17, -1, -1, -0.5, -0.5, 0.910041, 7.0277, 0.0814976, 193794
17, 18, 18, 17, -1.5, -1.5, -1, -1, 0.959919, 7.3285, 0.065327, 193707
17, 18, 18, 17, -2, -2, -1.5, -1.5, 0.923242, 6.99716, 0.0607613, 193717
17, 18, 18, 17, -2.5, -2.5, -2, -2, 0.931071, 7.01668, 0.0111786, 193796
17, 18, 18, 17, -3, -3, -2.5, -2.5, 0.931071, 7.01668, -0.0111786, 193796
18, 19, 19, 18, 2.5, 2.5, 3, 3, 0.926663, 6.94399, 0.0166395, 193717
18, 19, 19, 18, 2, 2, 2.5, 2.5, 0.926663, 6.94399, -0.0166395, 193717
18, 19, 19, 18, 1.5, 1.5, 2, 2, 0.932718, 7.10228, -0.0808335, 193774
18, 19, 19, 18, 1, 1, 1.5, 1.5, 0.93696, 7.08369, -0.0669908, 193721
18, 19, 19, 18, 0.5, 0.5, 1, 1, 0.919439, 7.1588, -0.0633578, 193819
18, 19, 19, 18, 0, 0, 0.5, 0.5, 0.954772, 7.12655, -0.0770851, 193749
18, 19, 19, 18, -0.5, -0.5, 0, 0, 0.906726, 6.97615, -0.0623184, 193716
18, 19, 19, 18, -1, -1, -0.5, -0.5, 0.913608, 7.05227, -0.0911801, 193767
18, 19, 19, 18, -1.5, -1.5, -1, -1, 0.956295, 7.25333, -0.0942757, 193714
18, 19, 19, 18, -2, -2, -1.5, -1.5, 0.963714, 7.28804, -0.0711032, 193703
18, 19, 19, 18, -2.5, -2.5, -2, -2, 0.970561, 7.35991, -0.0265297, 193722
18, 19, 19, 18, -3, -3, -2.5, -2.5, 0.970561, 7.35991, 0.0265297, 193722
19, 20, 20, 19, 2.5, 2.5, 3, 3, 0.926169, 6.97803, 0.0953991, 193831
19, 20, 20, 19, 2, 2, 2.5, 2.5, 0.926169, 6.97803, -0.0953991, 193831
19, 20, 20, 19, 1.5, 1.5, 2, 2, 0.960781, 7.3046, -0.0655541, 193776
19, 20, 20, 19, 1, 1, 1.5, 1.5, 0.938018, 7.04259, 0.0285503, 193778
19, 20, 20, 19, 0.5, 0.5, 1, 1, 0.923938, 7.16575, 0.0391962, 193780
19, 20, 20, 19, 0, 0, 0.5, 0.5, 0.981977, 7.25191, 0.044424, 193711
19, 20, 20, 19, -0.5, -0.5, 0, 0, 0.916003, 7.05089, 0.0525729, 193823
19, 20, 20, 19, -1, -1, -0.5, -0.5, 0.924274, 7.13906, 0.016464, 193773
19, 20, 20, 19, -1.5, -1.5, -1, -1, 0.956817, 7.2281, 0.00715374, 193699
19, 20, 20, 19, -2, -2, -1.5, -1.5, 0.954133, 7.15823, -0.023175, 193687
19, 20, 20, 19, -2.5, -2.5, -2, -2, 0.949655, 7.15466, -0.00817023, 193653
19, 20, 20, 19, -3, -3, -2.5, -2.5, 0.949655, 7.15466, 0.00817023, 193653
20, 21, 21, 20, 2.5, 2.5, 3, 3, 0.927617, 7.08168, 0.0369628, 193721
20, 21, 21, 20, 2, 2, 2.5, 2.5, 0.927617, 7.08168, -0.0369628, 193721
20, 21, 21, 20, 1.5, 1.5, 2, 2, 0.95303, 7.21021, -0.0318058, 193770
20, 21, 21, 20, 1, 1, 1.5, 1.5, 0.900966, 6.81161, -0.0320303, 193938
20, 21, 21, 20, 0.5, 0.5, 1, 1, 0.963018, 7.45822, -0.0508071, 193779
20, 21, 21, 20, 0, 0, 0.5, 0.5, 0.917824, 6.85265, -0.116447, 193695
20, 21, 21, 20, -0.5, -0.5, 0, 0, 0.966955, 7.46229, -0.258055, 193774
20, 21, 21, 20, -1, -1, -0.5, -0.5, 0.976063, 7.57243, -0.199165, 193764
20, 21, 21, 20, -1.5, -1.5, -1, -1, 0.987098, 7.42048, -0.116166, 193730
20, 21, 21, 20, -2, -2, -1.5, -1.5, 0.954877, 7.10124, -0.0716225, 193758
20, 21, 21, 20, -2.5, -2.5, -2, -2, 0.950732, 7.08873, -0.0306882, 193728
20, 21, 21, 20, -3, -3, -2.5, -2.5, 0.950732, 7.08873, 0.0306882, 193728
21, 22, 22, 21, 2.5, 2.5, 3, 3, 0.933077, 7.15696, -0.0439738, 193792
21, 22, 22, 21, 2, 2, 2.5, 2.5, 0.933077, 7.15696, 0.0439738, 193792
21, 22, 22, 21, 1.5, 1.5, 2, 2, 0.95322, 7.20901, 0.0837817, 193751
21, 22, 22, 21, 1, 1, 1.5, 1.5, 0.900887, 6.87477, 0.0718422, 193677
21, 22, 22, 21, 0.5, 0.5, 1, 1, 0.953446, 7.36309, 0.0628765, 193747
21, 22, 22, 21, 0, 0, 0.5, 0.5, 0.918749, 6.95768, 0.0193982, 193889
21, 22, 22, 21, -0.5, -0.5, 0, 0, 0.953528, 7.31325, -0.0157545, 193683
21, 22, 22, 21, -1, -1, -0.5, -0.5, 0.928797, 7.17476, -0.0254197, 193644
21, 22, 22, 21, -1.5, -1.5, -1, -1, 0.928002, 6.99755, -0.0478051, 193671
21, 22, 22, 21, -2, -2, -1.5, -1.5, 0.975818, 7.2778, -0.0918417, 193725
21, 22, 22, 21, -2.5, -2.5, -2, -2, 0.982841, 7.40323, -0.0571284, 193714
21, 22, 22, 21, -3, -3, -2.5, -2.5, 0.982841, 7.40323, 0.0571284, 193714
22, 23, 23, 22, 2.5, 2.5, 3, 3, 0.973309, 7.47245, -0.0820683, 193816
22, 23, 23, 22, 2, 2, 2.5, 2.5, 0.973309, 7.47245, 0.0820683, 193816
22, 23, 23, 22, 1.5, 1.5, 2, 2, 0.977297, 7.4343, 0.177254, 193810
22, 23, 23, 22, 1, 1, 1.5, 1.5, 0.901974, 7.00383, 0.165515, 193777
22, 23, 23, 22, 0.5, 0.5, 1, 1, 0.95403, 7.36528, 0.165596, 193725
22, 23, 23, 22, 0, 0, 0.5, 0.5, 0.919541, 7.02126, 0.151332, 193745
22, 23, 23, 22, -0.5, -0.5, 0, 0, 0.953926, 7.31703, 0.142744, 193763
22, 23, 23, 22, -1, -1, -0.5, -0.5, 0.92858, 7.1736, 0.14468, 193756
22, 23, 23, 22, -1.5, -1.5, -1, -1, 0.927637, 7.04874, 0.0665509, 193666
22, 23, 23, 22, -2, -2, -1.5, -1.5, 0.950953, 7.10828, 0.0233559, 193650
22, 23, 23, 22, -2.5, -2.5, -2, -2, 0.920854, 6.92358, 0.00528675, 193844
22, 23, 23, 22, -3, -3, -2.5, -2.5, 0.920854, 6.92358, -0.00528675, 193844
23, 24, 24, 23, 2.5, 2.5, 3, 3, 0.940327, 7.16422, -0.0488618, 193770
23, 24, 24, 23, 2, 2, 2.5, 2.5, 0.940327, 7.16422, 0.0488618, 193770
23, 24, 24, 23, 1.5, 1.5, 2, 2, 0.930183, 7.09959, 0.0779324, 194009
23, 24, 24, 23, 1, 1, 1.5, 1.5, 0.904561, 7.12381, 0.0294129, 193782
23, 24, 24, 23, 0.5, 0.5, 1, 1, 0.98154, 7.56463, -0.00443321, 193771
23, 24, 24, 23, 0, 0, 0.5, 0.5, 0.923659, 7.0887, 0.000560962, 193750
23, 24, 24, 23, -0.5, -0.5, 0, 0, 0.986117, 7.53119, 0.0216437, 193786
23, 24, 24, 23, -1, -1, -0.5, -0.5, 0.930694, 7.24257, 0.0558469, 193791
23, 24, 24, 23, -1.5, -1.5, -1, -1, 0.930992, 7.13854, 0.0199344, 193789
23, 24, 24, 23, -2, -2, -1.5, -1.5, 0.951447, 7.09216, 0.015656, 193759
23, 24, 24, 23, -2.5, -2.5, -2, -2, 0.920097, 6.90884, 0.00938341, 193655
23, 24, 24, 23, -3, -3, -2.5, -2.5, 0.920097, 6.90884, -0.00938341, 193655
24, 25, 25, 24, 2.5, 2.5, 3, 3, 0.941821, 7.10715, -0.0449716, 193786
24, 25, 25, 24, 2, 2, 2.5, 2.5, 0.941821, 7.10715, 0.0449716, 193786
24, 25, 25, 24, 1.5, 1.5, 2, 2, 0.929599, 7.15237, 0.0598236, 193744
24, 25, 25, 24, 1, 1, 1.5, 1.5, 0.911447, 7.20629, 0.0426431, 193790
24, 25, 25, 24, 0.5, 0.5, 1, 1, 0.937138, 7.20955, 0.0583819, 193743
24, 25, 25, 24, 0, 0, 0.5, 0.5, 0.985457, 7.54463, 0.108745, 193858
24, 25, 25, 24, -0.5, -0.5, 0, 0, 0.915627, 7.01456, 0.00148372, 193825
24, 25, 25, 24, -1, -1, -0.5, -0.5, 0.97365, 7.58706, -0.105639, 193859
24, 25, 25, 24, -1.5, -1.5, -1, -1, 0.97468, 7.46641, -0.0130021, 193773
24, 25, 25, 24, -2, -2, -1.5, -1.5, 0.982932, 7.36947, 0.0605441, 193778
24, 25, 25, 24, -2.5, -2.5, -2, -2, 0.922196, 7.04914, 0.0341601, 193785
24, 25, 25, 24, -3, -3, -2.5, -2.5, 0.922196, 7.04914, -0.0341601, 193785
25, 26, 26, 25, 2.5, 2.5, 3, 3, 0.925016, 7.08226, 0.0724365, 194068
25, 26, 26, 25, 2, 2, 2.5, 2.5, 0.925016, 7.08226, -0.0724365, 194068
25, 26, 26, 25, 1.5, 1.5, 2, 2, 0.9311, 7.20581, 0.00456193, 193793
25, 26, 26, 25, 1, 1, 1.5, 1.5, 0.960618, 7.62177, 0.15654, 193741
25, 26, 26, 25, 0.5, 0.5, 1, 1, 0.93796, 7.28601, 0.245648, 193754
25, 26, 26, 25, 0, 0, 0.5, 0.5, 0.901484, 7.05472, 0.171901, 193713
25, 26, 26, 25, -0.5, -0.5, 0, 0, 0.916735, 7.19996, 0.0910461, 193847
25, 26, 26, 25, -1, -1, -0.5, -0.5, 0.930481, 7.36802, 0.0597437, 193739
25, 26, 26, 25, -1.5, -1.5, -1, -1, 0.930684, 7.21761, 0.0337752, 193791
25, 26, 26, 25, -2, -2, -1.5, -1.5, 0.933765, 7.12231, 0.0449092, 193807
25, 26, 26, 25, -2.5, -2.5, -2, -2, 0.929055, 7.26874, 0.0242365, 193790
25, 26, 26, 25, -3, -3, -2.5, -2.5, 0.929055, 7.26874, -0.0242365, 193790
26, 27, 27, 26, 2.5, 2.5, 3, 3, 0.924822, 7.27123, 0.0154885, 193731
26, 27, 27, 26, 2, 2, 2.5, 2.5, 0.924822, 7.27123, -0.0154885, 193731
26, 27, 27, 26, 1.5, 1.5, 2, 2, 0.980455, 7.62365, -0.0347138, 193782
26, 27, 27, 26, 1, 1, 1.5, 1.5, 0.953323, 7.62184, -0.0421226, 193812
26, 27, 27, 26, 0.5, 0.5, 1, 1, 0.911326, 7.26845, -0.049127, 193724
26, 27, 27, 26, 0, 0, 0.5, 0.5, 0.902524, 7.24955, -0.0739714, 193982
26, 27, 27, 26, -0.5, -0.5, 0, 0, 0.918199, 7.29267, -0.0787259, 193835
26, 27, 27, 26, -1, -1, -0.5, -0.5, 0.931428, 7.49097, -0.100171, 193896
26, 27, 27, 26, -1.5, -1.5, -1, -1, 0.931764, 7.32666, -0.0966859, 193888
26, 27, 27, 26, -2, -2, -1.5, -1.5, 0.934309, 7.22614, -0.0885715, 193825
26, 27, 27, 26, -2.5, -2.5, -2, -2, 0.978274, 7.68925, -0.0452903, 193835
26, 27, 27, 26, -3, -3, -2.5, -2.5, 0.978274, 7.68925, 0.0452903, 193835
27, 28, 28, 27, 2.5, 2.5, 3, 3, 0.926499, 7.51165, 0.0187767, 193931
27, 28, 28, 27, 2, 2, 2.5, 2.5, 0.926499, 7.51165, -0.0187767, 193931
27, 28, 28, 27, 1.5, 1.5, 2, 2, 0.908897, 7.30575, -0.0565014, 193772
27, 28, 28, 27, 1, 1, 1.5, 1.5, 0.954025, 7.74455, -0.093368, 193872
27, 28, 28, 27, 0.5, 0.5, 1, 1, 0.91204, 7.40799, -0.0886062, 193944
27, 28, 28, 27, 0, 0, 0.5, 0.5, 0.903172, 7.3445, -0.0335443, 193866
27, 28, 28, 27, -0.5, -0.5, 0, 0, 0.92477, 7.40956, 0.000279042, 193863
27, 28, 28, 27, -1, -1, -0.5, -0.5, 0.934817, 7.57339, -0.00183718, 193823
27, 28, 28, 27, -1.5, -1.5, -1, -1, 0.934746, 7.38719, 0.0494901, 193862
27, 28, 28, 27, -2, -2, -1.5, -1.5, 0.937453, 7.32741, 0.162262, 193889
27, 28, 28, 27, -2.5, -2.5, -2, -2, 0.916865, 7.33707, 0.108219, 193853
27, 28, 28, 27, -3, -3, -2.5, -2.5, 0.916865, 7.33707, -0.108219, 193853
28, 29, 29, 28, 2.5, 2.5, 3, 3, 0.930573, 7.66355, -0.000165074, 193834
28, 29, 29, 28, 2, 2, 2.5, 2.5, 0.930573, 7.66355, 0.000165074, 193834
28, 29, 29, 28, 1.5, 1.5, 2, 2, 0.910153, 7.45336, 0.0156224, 193932
28, 29, 29, 28, 1, 1, 1.5, 1.5, 0.98408, 8.01197, -0.00454387, 193826
28, 29, 29, 28, 0.5, 0.5, 1, 1, 0.913539, 7.48437, -0.00170795, 193831
28, 29, 29, 28, 0, 0, 0.5, 0.5, 0.905526, 7.45559, 0.0242808, 193871
28, 29, 29, 28, -0.5, -0.5, 0, 0, 0.97329, 7.82123, 0.0290596, 193837
28, 29, 29, 28, -1, -1, -0.5, -0.5, 0.964711, 7.80132, 0.0476921, 193837
28, 29, 29, 28, -1.5, -1.5, -1, -1, 0.976448, 7.77912, 0.0186266, 193785
28, 29, 29, 28, -2, -2, -1.5, -1.5, 0.986853, 7.73428, 0.0375327, 193791
28, 29, 29, 28, -2.5, -2.5, -2, -2, 0.918016, 7.44518, 0.0296373, 193838
28, 29, 29, 28, -3, -3, -2.5, -2.5, 0.918016, 7.44518, -0.0296373, 193838
29, 30, 30, 29, 2.5, 2.5, 3, 3, 0.98059, 8.18009, -0.091199, 193882
29, 30, 30, 29, 2, 2, 2.5, 2.5, 0.98059, 8.18009, 0.091199, 193882
29, 30, 30, 29, 1.5, 1.5, 2, 2, 0.9115, 7.62765, 0.180505, 193900
29, 30, 30, 29, 1, 1, 1.5, 1.5, 0.928922, 7.68598, 0.150775, 193805
29, 30, 30, 29, 0.5, 0.5, 1, 1, 0.920436, 7.65935, 0.132351, 193925
29, 30, 30, 29, 0, 0, 0.5, 0.5, 0.915088, 7.65984, 0.220448, 193999
29, 30, 30, 29, -0.5, -0.5, 0, 0, 0.919079, 7.56817, 0.231673, 194011
29, 30, 30, 29, -1, -1, -0.5, -0.5, 0.949588, 7.82635, 0.111033, 193893
29, 30, 30, 29, -1.5, -1.5, -1, -1, 0.926832, 7.59904, 0.0630905, 193818
29, 30, 30, 29, -2, -2, -1.5, -1.5, 0.909817, 7.33196, 0.0301168, 193835
29, 30, 30, 29, -2.5, -2.5, -2, -2, 0.919731, 7.60576, 0.0336916, 193919
29, 30, 30, 29, -3, -3, -2.5, -2.5, 0.919731, 7.60576, -0.0336916, 193919
30, 31, 31, 30, 2.5, 2.5, 3, 3, 0.935751, 7.82603, -0.04999, 193749
30, 31, 31, 30, 2, 2, 2.5, 2.5, 0.935751, 7.82603, 0.04999, 193749
30, 31, 31, 30, 1.5, 1.5, 2, 2, 0.916303, 7.76936, 0.122764, 193806
30, 31, 31, 30, 1, 1, 1.5, 1.5, 0.92996, 7.80807, 0.137143, 193854
30, 31, 31, 30, 0.5, 0.5, 1, 1, 0.954619, 8.0304, 0.116454, 193775
30, 31, 31, 30, 0, 0, 0.5, 0.5, 0.962397, 8.13256, 0.107938, 193782
30, 31, 31, 30, -0.5, -0.5, 0, 0, 0.920297, 7.73458, 0.108281, 193904
30, 31, 31, 30, -1, -1, -0.5, -0.5, 0.951196, 7.94969, 0.114911, 193880
30, 31, 31, 30, -1.5, -1.5, -1, -1, 0.927872, 7.79812, 0.0785474, 193855
30, 31, 31, 30, -2, -2, -1.5, -1.5, 0.909833, 7.55928, 0.0166634, 193769
30, 31, 31, 30, -2.5, -2.5, -2, -2, 0.925501, 7.80247, 0.00490506, 193796
30, 31, 31, 30, -3, -3, -2.5, -2.5, 0.925501, 7.80247, -0.00490506, 193796
31, 32, 32, 31, 2.5, 2.5, 3, 3, 0.936028, 7.79517, -0.0635533, 193790
31, 32, 32, 31, 2, 2, 2.5, 2.5, 0.936028, 7.79517, 0.0635533, 193790
31, 32, 32, 31, 1.5, 1.5, 2, 2, 0.965124, 8.16955, 0.186435, 193810
31, 32, 32, 31, 1, 1, 1.5, 1.5, 0.931709, 7.84559, 0.281035, 193810
31, 32, 32, 31, 0.5, 0.5, 1, 1, 0.951674, 8.05867, 0.218561, 193719
31, 32, 32, 31, 0, 0, 0.5, 0.5, 0.928474, 7.8986, 0.127737, 193786
31, 32, 32, 31, -0.5, -0.5, 0, 0, 0.921449, 7.80076, 0.0749246, 193838
31, 32, 32, 31, -1, -1, -0.5, -0.5, 0.973932, 8.13667, 0.043943, 193780
31, 32, 32, 31, -1.5, -1.5, -1, -1, 0.930846, 7.85187, 0.0533818, 193779
31, 32, 32, 31, -2, -2, -1.5, -1.5, 0.910886, 7.6491, 0.0325924, 193802
31, 32, 32, 31, -2.5, -2.5, -2, -2, 0.976622, 8.2113, 0.00413279, 193714
31, 32, 32, 31, -3, -3, -2.5, -2.5, 0.976622, 8.2113, -0.00413279, 193714
32, 33, 33, 32, 2.5, 2.5, 3, 3, 0.905535, 7.66362, 0.140099, 194173
32, 33, 33, 32, 2, 2, 2.5, 2.5, 0.905535, 7.66362, -0.140099, 194173
32, 33, 33, 32, 1.5, 1.5, 2, 2, 0.933098, 7.91972, -0.0949061, 193844
32, 33, 33, 32, 1, 1, 1.5, 1.5, 0.97533, 8.24453, 0.00688274, 193817
32, 33, 33, 32, 0.5, 0.5, 1, 1, 0.953475, 8.1446, 0.0517485, 193813
32, 33, 33, 32, 0, 0, 0.5, 0.5, 0.928658, 8.01132, 0.0509891, 193859
32, 33, 33, 32, -0.5, -0.5, 0, 0, 0.927591, 7.95168, 0.00044287, 193821
32, 33, 33, 32, -1, -1, -0.5, -0.5, 0.952911, 8.01634, 0.0282737, 193998
32, 33, 33, 32, -1.5, -1.5, -1, -1, 0.962716, 8.14801, 0.146373, 193778
32, 33, 33, 32, -2, -2, -1.5, -1.5, 0.913407, 7.84574, 0.191108, 193843
32, 33, 33, 32, -2.5, -2.5, -2, -2, 0.917655, 7.84577, 0.0585951, 193687
32, 33, 33, 32, -3, -3, -2.5, -2.5, 0.917655, 7.84577, -0.0585951, 193687
33, 34, 34, 33, 2.5, 2.5, 3, 3, 0.90575, 7.85088, 0.0451289, 193731
33, 34, 34, 33, 2, 2, 2.5, 2.5, 0.90575, 7.85088, -0.0451289, 193731
33, 34, 34, 33, 1.5, 1.5, 2, 2, 0.934464, 8.02984, -0.0354855, 193822
33, 34, 34, 33, 1, 1, 1.5, 1.5, 0.929302, 8.00685, -0.0576211, 194106
33, 34, 34, 33, 0.5, 0.5, 1, 1, 0.972917, 8.33865, -0.110753, 193812
33, 34, 34, 33, 0, 0, 0.5, 0.5, 0.930016, 8.08222, -0.0295073, 193802
33, 34, 34, 33, -0.5, -0.5, 0, 0, 0.967987, 8.35304, -0.0541265, 193749
33, 34, 34, 33, -1, -1, -0.5, -0.5, 0.952541, 8.07264, -0.03577, 193754
33, 34, 34, 33, -1.5, -1.5, -1, -1, 0.959761, 8.17092, 0.0172301, 193768
33, 34, 34, 33, -2, -2, -1.5, -1.5, 0.920223, 8.01078, 0.0586961, 193851
33, 34, 34, 33, -2.5, -2.5, -2, -2, 0.918489, 7.98549, 0.0782322, 193962
33, 34, 34, 33, -3, -3, -2.5, -2.5, 0.918489, 7.98549, -0.0782322, 193962
34, 35, 35, 34, 2.5, 2.5, 3, 3, 0.906804, 8.02597, 0.0689204, 193869
34, 35, 35, 34, 2, 2, 2.5, 2.5, 0.906804, 8.02597, -0.0689204, 193869
34, 35, 35, 34, 1.5, 1.5, 2, 2, 0.92896, 8.09456, -0.0756656, 193983
34, 35, 35, 34, 1, 1, 1.5, 1.5, 0.930148, 8.12789, -0.0213509, 193757
34, 35, 35, 34, 0.5, 0.5, 1, 1, 0.953323, 8.25103, 0.0201063, 193774
34, 35, 35, 34, 0, 0, 0.5, 0.5, 0.93554, 8.24808, -0.0590612, 193763
34, 35, 35, 34, -0.5, -0.5, 0, 0, 0.931471, 8.15099, -0.175026, 193810
34, 35, 35, 34, -1, -1, -0.5, -0.5, 0.974896, 8.29822, -0.129099, 193870
34, 35, 35, 34, -1.5, -1.5, -1, -1, 0.973054, 8.30865, 0.00303568, 193864
34, 35, 35, 34, -2, -2, -1.5, -1.5, 0.981992, 8.54554, 0.00221423, 193818
34, 35, 35, 34, -2.5, -2.5, -2, -2, 0.919503, 8.08328, 0.000528488, 193772
34, 35, 35, 34, -3, -3, -2.5, -2.5, 0.919503, 8.08328, -0.000528488, 193772
35, 36, 36, 35, 2.5, 2.5, 3, 3, 0.909491, 8.27916, 0.0118077, 193815