-0.1, 0, 0, -0.1, 1.478, 1.477, 1.5, 1.5, 1.89564, 941.779, -5.6208, 1.14847e+06
-0.1, 0, 0, -0.1, 1.457, 1.454, 1.477, 1.478, 2.10961, 948.824, 0.0111005, 1.11271e+06
-0.1, 0, 0, -0.1, 1.435, 1.431, 1.454, 1.457, 2.10616, 934.375, -9.71988, 1.09012e+06
-0.1, 0, 0, -0.1, 1.413, 1.408, 1.431, 1.435, 2.11267, 932.425, -9.80831, 1.08577e+06
-0.1, 0, 0, -0.1, 1.391, 1.385, 1.408, 1.413, 2.11055, 931.388, -9.48683, 1.08438e+06
-0.1, 0, 0, -0.1, 1.37, 1.362, 1.385, 1.391, 2.11012, 931.398, -16.8831, 1.08432e+06
-0.1, 0, 0, -0.1, 1.348, 1.339, 1.362, 1.37, 2.10619, 932.925, -9.62168, 1.08711e+06
-0.1, 0, 0, -0.1, 1.326, 1.316, 1.339, 1.348, 2.11056, 938.711, -10.965, 1.09557e+06
-0.1, 0, 0, -0.1, 1.304, 1.293, 1.316, 1.326, 2.10229, 940.471, -11.6772, 1.09915e+06
-0.1, 0, 0, -0.1, 1.283, 1.27, 1.293, 1.304, 2.09865, 942.396, -15.9116, 1.1025e+06
-0.1, 0, 0, -0.1, 1.261, 1.247, 1.27, 1.283, 2.09678, 945.176, -13.4352, 1.10698e+06
-0.1, 0, 0, -0.1, 1.239, 1.224, 1.247, 1.261, 2.10249, 950.087, -14.1409, 1.11358e+06
-0.1, 0, 0, -0.1, 1.218, 1.201, 1.224, 1.239, 2.09601, 950.595, -12.9402, 1.11514e+06
-0.1, 0, 0, -0.1, 1.196, 1.178, 1.201, 1.218, 2.09929, 953.072, -18.9863, 1.11852e+06
-0.1, 0, 0, -0.1, 1.174, 1.155, 1.178, 1.196, 2.10733, 957.034, -15.9058, 1.12377e+06
-0.1, 0, 0, -0.1, 1.152, 1.132, 1.155, 1.174, 2.10738, 959.369, -11.9975, 1.12739e+06
-0.1, 0, 0, -0.1, 1.131, 1.109, 1.132, 1.152, 2.10133, 959.013, -12.9112, 1.12775e+06
-0.1, 0, 0, -0.1, 1.109, 1.086, 1.109, 1.131, 2.09991, 956.627, -16.5613, 1.12401e+06
-0.1, 0, 0, -0.1, 1.087, 1.063, 1.086, 1.109, 2.10094, 956.815, -16.9805, 1.12375e+06
-0.1, 0, 0, -0.1, 1.065, 1.04, 1.063, 1.087, 2.09615, 956.942, -12.1507, 1.12465e+06
-0.1, 0, 0, -0.1, 1.044, 1.017, 1.04, 1.065, 2.0955, 956.733, -14.6157, 1.12451e+06
-0.1, 0, 0, -0.1, 1.022, 0.994, 1.017, 1.044, 2.09602, 956.12, -18.6268, 1.1235e+06
-0.1, 0, 0, -0.1, 1, 0.971, 0.994, 1.022, 2.10044, 956.947, -17.5778, 1.12399e+06
-0.1, 0, 0, -0.1, 0.979, 0.948, 0.971, 1, 2.10032, 956.224, -19.1838, 1.12291e+06
-0.1, 0, 0, -0.1, 0.957, 0.925, 0.948, 0.979, 2.10085, 956.2, -17.5739, 1.12304e+06
-0.1, 0, 0, -0.1, 0.935, 0.902, 0.925, 0.957, 2.09938, 953.9, -18.3325, 1.11938e+06
-0.1, 0, 0, -0.1, 0.913, 0.879, 0.902, 0.935, 2.10749, 953.084, -21.4159, 1.11667e+06
-0.1, 0, 0, -0.1, 0.892, 0.856, 0.879, 0.913, 2.11124, 953.463, -17.3216, 1.1169e+06
-0.1, 0, 0, -0.1, 0.87, 0.833, 0.856, 0.892, 2.10504, 949.626, -17.9804, 1.11224e+06
-0.1, 0, 0, -0.1, 0.848, 0.81, 0.833, 0.87, 2.10702, 944.711, -25.9296, 1.10447e+06
-0.1, 0, 0, -0.1, 0.826, 0.787, 0.81, 0.848, 2.13208, 945.307, -19.4405, 1.10157e+06
-0.1, 0, 0, -0.1, 0.805, 0.764, 0.787, 0.826, 2.14349, 944.796, -18.0312, 1.09988e+06
-0.1, 0, 0, -0.1, 0.783, 0.741, 0.764, 0.805, 2.15856, 946.773, -13.5157, 1.10159e+06
-0.1, 0, 0, -0.1, 0.761, 0.718, 0.741, 0.783, 2.17365, 950.106, -7.1602, 1.10566e+06
-0.1, 0, 0, -0.1, 0.74, 0.694, 0.718, 0.761, 2.08667, 951.762, 1.2214, 1.1237e+06
0, 0.1, 0.1, 0, 1.5, 1.5, 1.524, 1.523, 1.89564, 941.779, 5.6208, 1.14847e+06
0, 0.1, 0.1, 0, 1.477, 1.476, 1.5, 1.5, 1.89564, 941.779, -5.6208, 1.14847e+06
0, 0.1, 0.1, 0, 1.454, 1.451, 1.476, 1.477, 2.10961, 948.824, 0.0111005, 1.11271e+06
0, 0.1, 0.1, 0, 1.431, 1.427, 1.451, 1.454, 2.10616, 934.375, -9.71988, 1.09012e+06
0, 0.1, 0.1, 0, 1.408, 1.403, 1.427, 1.431, 2.11267, 932.425, -9.80831, 1.08577e+06
0, 0.1, 0.1, 0, 1.385, 1.378, 1.403, 1.408, 2.11055, 931.388, -9.48683, 1.08438e+06
0, 0.1, 0.1, 0, 1.362, 1.354, 1.378, 1.385, 2.11012, 931.398, -16.8831, 1.08432e+06
0, 0.1, 0.1, 0, 1.339, 1.33, 1.354, 1.362, 2.10619, 932.925, -9.62168, 1.08711e+06
0, 0.1, 0.1, 0, 1.316, 1.306, 1.33, 1.339, 2.11056, 938.711, -10.965, 1.09557e+06
0, 0.1, 0.1, 0, 1.293, 1.281, 1.306, 1.316, 2.10229, 940.471, -11.6772, 1.09915e+06
0, 0.1, 0.1, 0, 1.27, 1.257, 1.281, 1.293, 2.09865, 942.396, -15.9116, 1.1025e+06
0, 0.1, 0.1, 0, 1.247, 1.233, 1.257, 1.27, 2.09678, 945.176, -13.4352, 1.10698e+06
0, 0.1, 0.1, 0, 1.224, 1.208, 1.233, 1.247, 2.10249, 950.087, -14.1409, 1.11358e+06
0, 0.1, 0.1, 0, 1.201, 1.184, 1.208, 1.224, 2.09601, 950.595, -12.9402, 1.11514e+06
0, 0.1, 0.1, 0, 1.178, 1.16, 1.184, 1.201, 2.09929, 953.072, -18.9863, 1.11852e+06
0, 0.1, 0.1, 0, 1.155, 1.135, 1.16, 1.178, 2.10733, 957.034, -15.9058, 1.12377e+06
0, 0.1, 0.1, 0, 1.132, 1.111, 1.135, 1.155, 2.10738, 959.369, -11.9975, 1.12739e+06
0, 0.1, 0.1, 0, 1.109, 1.087, 1.111, 1.132, 2.10133, 959.013, -12.9112, 1.12775e+06
0, 0.1, 0.1, 0, 1.086, 1.063, 1.087, 1.109, 2.09991, 956.627, -16.5613, 1.12401e+06
0, 0.1, 0.1, 0, 1.063, 1.038, 1.063, 1.086, 2.10094, 956.815, -16.9805, 1.12375e+06
0, 0.1, 0.1, 0, 1.04, 1.014, 1.038, 1.063, 2.09615, 956.942, -12.1507, 1.12465e+06
0, 0.1, 0.1, 0, 1.017, 0.99, 1.014, 1.04, 2.0955, 956.733, -14.6157, 1.12451e+06
0, 0.1, 0.1, 0, 0.994, 0.965, 0.99, 1.017, 2.09602, 956.12, -18.6268, 1.1235e+06
0, 0.1, 0.1, 0, 0.971, 0.941, 0.965, 0.994, 2.10044, 956.947, -17.5778, 1.12399e+06
0, 0.1, 0.1, 0, 0.948, 0.917, 0.941, 0.971, 2.10032, 956.224, -19.1838, 1.12291e+06
0, 0.1, 0.1, 0, 0.925, 0.892, 0.917, 0.948, 2.10085, 956.2, -17.5739, 1.12304e+06
0, 0.1, 0.1, 0, 0.902, 0.868, 0.892, 0.925, 2.09938, 953.9, -18.3325, 1.11938e+06
0, 0.1, 0.1, 0, 0.879, 0.844, 0.868, 0.902, 2.10749, 953.084, -21.4159, 1.11667e+06
0, 0.1, 0.1, 0, 0.856, 0.82, 0.844, 0.879, 2.11124, 953.463, -17.3216, 1.1169e+06
0, 0.1, 0.1, 0, 0.833, 0.795, 0.82, 0.856, 2.10504, 949.626, -17.9804, 1.11224e+06
0, 0.1, 0.1, 0, 0.81, 0.771, 0.795, 0.833, 2.10702, 944.711, -25.9296, 1.10447e+06
0, 0.1, 0.1, 0, 0.787, 0.747, 0.771, 0.81, 2.13208, 945.307, -19.4405, 1.10157e+06
0, 0.1, 0.1, 0, 0.764, 0.722, 0.747, 0.787, 2.14349, 944.796, -18.0312, 1.09988e+06
0, 0.1, 0.1, 0, 0.741, 0.698, 0.722, 0.764, 2.15856, 946.773, -13.5157, 1.10159e+06
0, 0.1, 0.1, 0, 0.718, 0.674, 0.698, 0.741, 2.17365, 950.106, -7.1602, 1.10566e+06
0, 0.1, 0.1, 0, 0.694, 0.649, 0.674, 0.718, 2.08667, 951.762, 1.2214, 1.1237e+06
0, 0.1, 0.1, 0, 0.671, 0.625, 0.649, 0.694, 2.08667, 951.762, -1.2214, 1.1237e+06
0.1, 0.2, 0.2, 0.1, 1.5, 1.5, 1.526, 1.524, 2.42592, 855.984, 7.48593, 902426
0.1, 0.2, 0.2, 0.1, 1.476, 1.474, 1.5, 1.5, 2.42592, 855.984, -7.48593, 902426
0.1, 0.2, 0.2, 0.1, 1.451, 1.449, 1.474, 1.476, 2.61706, 839.967, -4.36021, 871021
0.1, 0.2, 0.2, 0.1, 1.427, 1.423, 1.449, 1.451, 2.60789, 825.05, -7.2769, 858384
0.1, 0.2, 0.2, 0.1, 1.403, 1.398, 1.423, 1.427, 2.61422, 822.488, -7.37956, 857960
0.1, 0.2, 0.2, 0.1, 1.378, 1.372, 1.398, 1.403, 2.61334, 821.86, -8.3291, 858759
0.1, 0.2, 0.2, 0.1, 1.354, 1.347, 1.372, 1.378, 2.61112, 821.609, -8.97968, 859548
0.1, 0.2, 0.2, 0.1, 1.33, 1.321, 1.347, 1.354, 2.61497, 824.978, -11.5551, 862996
0.1, 0.2, 0.2, 0.1, 1.306, 1.296, 1.321, 1.33, 2.61139, 827.426, -10.8199, 863844
0.1, 0.2, 0.2, 0.1, 1.281, 1.27, 1.296, 1.306, 2.60807, 829.728, -11.8905, 866005
0.1, 0.2, 0.2, 0.1, 1.257, 1.245, 1.27, 1.281, 2.6155, 834.961, -14.3043, 870113
0.1, 0.2, 0.2, 0.1, 1.233, 1.219, 1.245, 1.257, 2.61562, 837.439, -11.6543, 872385
0.1, 0.2, 0.2, 0.1, 1.208, 1.194, 1.219, 1.233, 2.61771, 839.838, -16.9569, 874380
0.1, 0.2, 0.2, 0.1, 1.184, 1.168, 1.194, 1.208, 2.61556, 845.769, -14.2351, 882958
0.1, 0.2, 0.2, 0.1, 1.16, 1.142, 1.168, 1.184, 2.61984, 844.011, -17.1821, 877010
0.1, 0.2, 0.2, 0.1, 1.135, 1.117, 1.142, 1.16, 2.62489, 845.644, -16.8761, 878362
0.1, 0.2, 0.2, 0.1, 1.111, 1.091, 1.117, 1.135, 2.62838, 848.662, -14.0476, 880943
0.1, 0.2, 0.2, 0.1, 1.087, 1.066, 1.091, 1.111, 2.62512, 849.278, -11.9664, 881405
0.1, 0.2, 0.2, 0.1, 1.063, 1.04, 1.066, 1.087, 2.62457, 847.575, -11.9617, 879892
0.1, 0.2, 0.2, 0.1, 1.038, 1.015, 1.04, 1.063, 2.62061, 850.697, -13.4208, 885858
0.1, 0.2, 0.2, 0.1, 1.014, 0.989, 1.015, 1.038, 2.62066, 851.742, -18.814, 885955
0.1, 0.2, 0.2, 0.1, 0.99, 0.964, 0.989, 1.014, 2.62197, 852.983, -16.9635, 887952
0.1, 0.2, 0.2, 0.1, 0.965, 0.938, 0.964, 0.99, 2.6231, 848.209, -20.6325, 880598
0.1, 0.2, 0.2, 0.1, 0.941, 0.913, 0.938, 0.965, 2.62175, 847.25, -17.0226, 880432
0.1, 0.2, 0.2, 0.1, 0.917, 0.887, 0.913, 0.941, 2.62159, 851.457, -18.0654, 886676
0.1, 0.2, 0.2, 0.1, 0.892, 0.862, 0.887, 0.917, 2.62356, 847.133, -18.0502, 879444
0.1, 0.2, 0.2, 0.1, 0.868, 0.836, 0.862, 0.892, 2.62204, 845.456, -16.9203, 878826
0.1, 0.2, 0.2, 0.1, 0.844, 0.81, 0.836, 0.868, 2.62528, 843.14, -19.394, 877229
0.1, 0.2, 0.2, 0.1, 0.82, 0.785, 0.81, 0.844, 2.62661, 842.577, -16.6375, 876893
0.1, 0.2, 0.2, 0.1, 0.795, 0.759, 0.785, 0.82, 2.62267, 840.238, -17.0301, 874654
0.1, 0.2, 0.2, 0.1, 0.771, 0.734, 0.759, 0.795, 2.62666, 836.45, -22.1576, 872358
0.1, 0.2, 0.2, 0.1, 0.747, 0.708, 0.734, 0.771, 2.64035, 833.879, -18.3047, 871970
0.1, 0.2, 0.2, 0.1, 0.722, 0.683, 0.708, 0.747, 2.64964, 833.676, -14.9523, 871945
0.1, 0.2, 0.2, 0.1, 0.698, 0.657, 0.683, 0.722, 2.65894, 834.246, -10.9742, 872810
0.1, 0.2, 0.2, 0.1, 0.674, 0.632, 0.657, 0.698, 2.66811, 835.234, -4.96191, 874094
0.1, 0.2, 0.2, 0.1, 0.649, 0.606, 0.632, 0.674, 2.60397, 843.283, 0.332417, 882870
0.1, 0.2, 0.2, 0.1, 0.625, 0.581, 0.606, 0.649, 2.60397, 843.283, -0.332417, 882870
0.2, 0.3, 0.3, 0.2, 1.5, 1.5, 1.527, 1.526, 2.53537, 665.232, 2.38105, 675741
0.2, 0.3, 0.3, 0.2, 1.474, 1.473, 1.5, 1.5, 2.53537, 665.232, -2.38105, 675741
0.2, 0.3, 0.3, 0.2, 1.449, 1.447, 1.473, 1.474, 2.60243, 646.538, -3.52193, 664966
0.2, 0.3, 0.3, 0.2, 1.423, 1.42, 1.447, 1.449, 2.60803, 639.915, -9.31933, 664668
0.2, 0.3, 0.3, 0.2, 1.398, 1.393, 1.42, 1.423, 2.61686, 640.915, -8.3014, 667836
0.2, 0.3, 0.3, 0.2, 1.372, 1.366, 1.393, 1.398, 2.61829, 642.204, -6.56907, 669836
0.2, 0.3, 0.3, 0.2, 1.347, 1.34, 1.366, 1.372, 2.61873, 643.332, -9.10717, 671084
0.2, 0.3, 0.3, 0.2, 1.321, 1.313, 1.34, 1.347, 2.61538, 644.227, -7.01742, 671190
0.2, 0.3, 0.3, 0.2, 1.296, 1.286, 1.313, 1.321, 2.61614, 645.583, -11.031, 671489
0.2, 0.3, 0.3, 0.2, 1.27, 1.259, 1.286, 1.296, 2.62123, 648.627, -11.7247, 673305
0.2, 0.3, 0.3, 0.2, 1.245, 1.233, 1.259, 1.27, 2.62751, 650.982, -10.9167, 674805
0.2, 0.3, 0.3, 0.2, 1.219, 1.206, 1.233, 1.245, 2.63168, 653.262, -12.0079, 676090
0.2, 0.3, 0.3, 0.2, 1.194, 1.179, 1.206, 1.219, 2.63627, 655.625, -11.4788, 677785
0.2, 0.3, 0.3, 0.2, 1.168, 1.153, 1.179, 1.194, 2.638, 656.743, -10.7871, 678529
0.2, 0.3, 0.3, 0.2, 1.142, 1.126, 1.153, 1.168, 2.63961, 657.351, -9.91734, 678858
0.2, 0.3, 0.3, 0.2, 1.117, 1.099, 1.126, 1.142, 2.63996, 657.163, -10.2979, 678725
0.2, 0.3, 0.3, 0.2, 1.091, 1.072, 1.099, 1.117, 2.64262, 658.419, -8.83029, 679025
0.2, 0.3, 0.3, 0.2, 1.066, 1.046, 1.072, 1.091, 2.64335, 658.791, -9.58136, 679084
0.2, 0.3, 0.3, 0.2, 1.04, 1.019, 1.046, 1.066, 2.6457, 658.573, -7.92125, 679168
0.2, 0.3, 0.3, 0.2, 1.015, 0.992, 1.019, 1.04, 2.6432, 658.507, -8.42908, 678812
0.2, 0.3, 0.3, 0.2, 0.989, 0.966, 0.992, 1.015, 2.64396, 659.178, -10.7451, 678504
0.2, 0.3, 0.3, 0.2, 0.964, 0.939, 0.966, 0.989, 2.64434, 660.241, -12.3243, 679061
0.2, 0.3, 0.3, 0.2, 0.938, 0.912, 0.939, 0.964, 2.64358, 660.282, -12.3253, 679114
0.2, 0.3, 0.3, 0.2, 0.913, 0.885, 0.912, 0.938, 2.64199, 659.888, -11.4703, 679167
0.2, 0.3, 0.3, 0.2, 0.887, 0.859, 0.885, 0.913, 2.64287, 659.689, -12.5061, 678811
0.2, 0.3, 0.3, 0.2, 0.862, 0.832, 0.859, 0.887, 2.64335, 659.499, -12.1861, 678903
0.2, 0.3, 0.3, 0.2, 0.836, 0.805, 0.832, 0.862, 2.64146, 658.81, -10.0868, 678737
0.2, 0.3, 0.3, 0.2, 0.81, 0.778, 0.805, 0.836, 2.64142, 657.542, -11.9886, 678149
0.2, 0.3, 0.3, 0.2, 0.785, 0.752, 0.778, 0.81, 2.64279, 657.357, -10.1323, 679071
0.2, 0.3, 0.3, 0.2, 0.759, 0.725, 0.752, 0.785, 2.64013, 655.959, -8.86897, 678790
0.2, 0.3, 0.3, 0.2, 0.734, 0.698, 0.725, 0.759, 2.64085, 653.724, -9.4803, 678361
0.2, 0.3, 0.3, 0.2, 0.708, 0.672, 0.698, 0.734, 2.63807, 651.323, -6.02494, 677870
0.2, 0.3, 0.3, 0.2, 0.683, 0.645, 0.672, 0.708, 2.64062, 650.304, -5.59917, 677456
0.2, 0.3, 0.3, 0.2, 0.657, 0.618, 0.645, 0.683, 2.64377, 650.507, -5.14616, 678155
0.2, 0.3, 0.3, 0.2, 0.632, 0.591, 0.618, 0.657, 2.64657, 650.005, -1.42291, 678731
0.2, 0.3, 0.3, 0.2, 0.606, 0.565, 0.591, 0.632, 2.62056, 657.036, 0.309743, 682062
0.2, 0.3, 0.3, 0.2, 0.581, 0.538, 0.565, 0.606, 2.62056, 657.036, -0.309743, 682062
0.3, 0.4, 0.4, 0.3, 1.5, 1.5, 1.528, 1.527, 2.27177, 480.803, 1.58351, 557649
0.3, 0.4, 0.4, 0.3, 1.473, 1.472, 1.5, 1.5, 2.27177, 480.803, -1.58351, 557649
0.3, 0.4, 0.4, 0.3, 1.447, 1.444, 1.472, 1.473, 2.29657, 469.678, -3.78106, 553425
0.3, 0.4, 0.4, 0.3, 1.42, 1.416, 1.444, 1.447, 2.30045, 468.035, -6.57426, 554283
0.3, 0.4, 0.4, 0.3, 1.393, 1.389, 1.416, 1.42, 2.30682, 469.939, -6.61011, 556518
0.3, 0.4, 0.4, 0.3, 1.366, 1.361, 1.389, 1.393, 2.31345, 472.625, -6.06635, 558830
0.3, 0.4, 0.4, 0.3, 1.34, 1.333, 1.361, 1.366, 2.31734, 474.633, -4.98397, 560533
0.3, 0.4, 0.4, 0.3, 1.313, 1.305, 1.333, 1.34, 2.31806, 475.77, -4.45265, 561295
0.3, 0.4, 0.4, 0.3, 1.286, 1.277, 1.305, 1.313, 2.31787, 476.559, -4.70438, 561343
0.3, 0.4, 0.4, 0.3, 1.259, 1.249, 1.277, 1.286, 2.31777, 477.115, -5.14699, 560937
0.3, 0.4, 0.4, 0.3, 1.233, 1.221, 1.249, 1.259, 2.3245, 478.552, -7.27365, 562118
0.3, 0.4, 0.4, 0.3, 1.206, 1.194, 1.221, 1.233, 2.32868, 480.054, -6.61825, 563242
0.3, 0.4, 0.4, 0.3, 1.179, 1.166, 1.194, 1.206, 2.33072, 481.076, -6.66095, 563702
0.3, 0.4, 0.4, 0.3, 1.153, 1.138, 1.166, 1.179, 2.3321, 481.599, -6.84774, 563856
0.3, 0.4, 0.4, 0.3, 1.126, 1.11, 1.138, 1.153, 2.33289, 481.628, -5.99394, 563957
0.3, 0.4, 0.4, 0.3, 1.099, 1.082, 1.11, 1.126, 2.33221, 481.159, -5.53776, 563921
0.3, 0.4, 0.4, 0.3, 1.072, 1.054, 1.082, 1.099, 2.33268, 481.143, -5.56897, 563758
0.3, 0.4, 0.4, 0.3, 1.046, 1.026, 1.054, 1.072, 2.33233, 480.822, -4.76947, 563579
0.3, 0.4, 0.4, 0.3, 1.019, 0.999, 1.026, 1.046, 2.33591, 481.216, -6.10234, 564100
0.3, 0.4, 0.4, 0.3, 0.992, 0.971, 0.999, 1.019, 2.33727, 481.968, -4.60326, 564420
0.3, 0.4, 0.4, 0.3, 0.966, 0.943, 0.971, 0.992, 2.33669, 482.124, -6.11847, 563921
0.3, 0.4, 0.4, 0.3, 0.939, 0.915, 0.943, 0.966, 2.33593, 482.558, -5.53109, 563707
0.3, 0.4, 0.4, 0.3, 0.912, 0.887, 0.915, 0.939, 2.33537, 482.692, -6.21204, 563382
0.3, 0.4, 0.4, 0.3, 0.885, 0.859, 0.887, 0.912, 2.33536, 482.741, -7.1681, 563549
0.3, 0.4, 0.4, 0.3, 0.859, 0.832, 0.859, 0.885, 2.33644, 482.623, -8.21304, 563637
0.3, 0.4, 0.4, 0.3, 0.832, 0.804, 0.832, 0.859, 2.33595, 482.613, -6.61019, 563796
0.3, 0.4, 0.4, 0.3, 0.805, 0.776, 0.804, 0.832, 2.33637, 482.314, -6.81344, 563943
0.3, 0.4, 0.4, 0.3, 0.778, 0.748, 0.776, 0.805, 2.33571, 482.027, -5.93861, 563777
0.3, 0.4, 0.4, 0.3, 0.752, 0.72, 0.748, 0.778, 2.33627, 482.066, -6.59077, 564015
0.3, 0.4, 0.4, 0.3, 0.725, 0.692, 0.72, 0.752, 2.33359, 481.445, -5.53894, 563974
0.3, 0.4, 0.4, 0.3, 0.698, 0.664, 0.692, 0.725, 2.33396, 480.588, -6.21556, 564169
0.3, 0.4, 0.4, 0.3, 0.672, 0.637, 0.664, 0.698, 2.3301, 479.438, -4.41736, 564185
0.3, 0.4, 0.4, 0.3, 0.645, 0.609, 0.637, 0.672, 2.32997, 478.546, -3.65276, 564196
0.3, 0.4, 0.4, 0.3, 0.618, 0.581, 0.609, 0.645, 2.32866, 478.118, -2.5667, 564388
0.3, 0.4, 0.4, 0.3, 0.591, 0.553, 0.581, 0.618, 2.32984, 477.835, -1.93445, 565206
0.3, 0.4, 0.4, 0.3, 0.565, 0.525, 0.553, 0.591, 2.32123, 482.355, -0.101467, 567220
0.3, 0.4, 0.4, 0.3, 0.538, 0.497, 0.525, 0.565, 2.32123, 482.355, 0.101467, 567220
0.4, 0.5, 0.5, 0.4, 1.5, 1.5, 1.529, 1.528, 1.93783, 349.549, 0.565388, 482816
0.4, 0.5, 0.5, 0.4, 1.472, 1.471, 1.5, 1.5, 1.93783, 349.549, -0.565388, 482816
0.4, 0.5, 0.5, 0.4, 1.444, 1.442, 1.471, 1.472, 1.9448, 343.607, -3.29792, 481696
0.4, 0.5, 0.5, 0.4, 1.416, 1.413, 1.442, 1.444, 1.94836, 343.95, -4.47506, 482648
0.4, 0.5, 0.5, 0.4, 1.389, 1.384, 1.413, 1.416, 1.95333, 345.624, -4.59879, 484094
0.4, 0.5, 0.5, 0.4, 1.361, 1.355, 1.384, 1.389, 1.95889, 347.583, -4.45457, 485603
0.4, 0.5, 0.5, 0.4, 1.333, 1.326, 1.355, 1.361, 1.96444, 349.534, -3.87341, 487159
0.4, 0.5, 0.5, 0.4, 1.305, 1.297, 1.326, 1.333, 1.96731, 350.9, -2.98913, 488105
0.4, 0.5, 0.5, 0.4, 1.277, 1.269, 1.297, 1.305, 1.96778, 351.499, -2.64367, 488331
0.4, 0.5, 0.5, 0.4, 1.249, 1.24, 1.269, 1.277, 1.96732, 351.537, -2.7052, 488079
0.4, 0.5, 0.5, 0.4, 1.221, 1.211, 1.24, 1.249, 1.96994, 352.106, -3.63849, 488527
0.4, 0.5, 0.5, 0.4, 1.194, 1.182, 1.211, 1.221, 1.97181, 352.831, -3.43021, 488982
0.4, 0.5, 0.5, 0.4, 1.166, 1.153, 1.182, 1.194, 1.97234, 353.129, -2.95734, 489025
0.4, 0.5, 0.5, 0.4, 1.138, 1.124, 1.153, 1.166, 1.97272, 353.043, -3.60902, 488815
0.4, 0.5, 0.5, 0.4, 1.11, 1.095, 1.124, 1.138, 1.97271, 352.905, -3.01546, 488920
0.4, 0.5, 0.5, 0.4, 1.082, 1.066, 1.095, 1.11, 1.97257, 352.703, -2.98741, 488923
0.4, 0.5, 0.5, 0.4, 1.054, 1.037, 1.066, 1.082, 1.97217, 352.607, -3.53776, 488786
0.4, 0.5, 0.5, 0.4, 1.026, 1.008, 1.037, 1.054, 1.97311, 352.55, -3.6635, 489066
0.4, 0.5, 0.5, 0.4, 0.999, 0.979, 1.008, 1.026, 1.97222, 352.375, -2.40476, 488987
0.4, 0.5, 0.5, 0.4, 0.971, 0.95, 0.979, 0.999, 1.97504, 352.832, -2.82635, 489291
0.4, 0.5, 0.5, 0.4, 0.943, 0.921, 0.95, 0.971, 1.97572, 353.254, -2.66336, 489338
0.4, 0.5, 0.5, 0.4, 0.915, 0.892, 0.921, 0.943, 1.97469, 353.253, -3.13538, 488954
0.4, 0.5, 0.5, 0.4, 0.887, 0.864, 0.892, 0.915, 1.97432, 353.238, -3.65422, 488672
0.4, 0.5, 0.5, 0.4, 0.859, 0.835, 0.864, 0.887, 1.97469, 353.369, -4.22293, 488703
0.4, 0.5, 0.5, 0.4, 0.832, 0.806, 0.835, 0.859, 1.97466, 353.275, -3.81327, 488727
0.4, 0.5, 0.5, 0.4, 0.804, 0.777, 0.806, 0.832, 1.97477, 353.271, -3.49559, 488692
0.4, 0.5, 0.5, 0.4, 0.776, 0.748, 0.777, 0.804, 1.97488, 353.13, -3.65132, 488726
0.4, 0.5, 0.5, 0.4, 0.748, 0.719, 0.748, 0.776, 1.97513, 353.044, -4.17664, 488819
0.4, 0.5, 0.5, 0.4, 0.72, 0.69, 0.719, 0.748, 1.97583, 353.174, -3.63165, 489070
0.4, 0.5, 0.5, 0.4, 0.692, 0.661, 0.69, 0.72, 1.97418, 352.909, -3.16292, 489032
0.4, 0.5, 0.5, 0.4, 0.664, 0.632, 0.661, 0.692, 1.97443, 352.599, -4.22736, 489078
0.4, 0.5, 0.5, 0.4, 0.637, 0.603, 0.632, 0.664, 1.97219, 352.196, -2.5936, 489276
0.4, 0.5, 0.5, 0.4, 0.609, 0.574, 0.603, 0.637, 1.97263, 352.077, -2.40584, 489605
0.4, 0.5, 0.5, 0.4, 0.581, 0.545, 0.574, 0.609, 1.97082, 351.758, -1.70839, 489876
0.4, 0.5, 0.5, 0.4, 0.553, 0.516, 0.545, 0.581, 1.97116, 351.941, -1.61235, 490506
0.4, 0.5, 0.5, 0.4, 0.525, 0.487, 0.516, 0.553, 1.96966, 354.585, -0.0605484, 491569
0.4, 0.5, 0.5, 0.4, 0.497, 0.458, 0.487, 0.525, 1.96966, 354.585, 0.0605484, 491569
0.5, 0.6, 0.6, 0.5, 1.5, 1.5, 1.53, 1.529, 1.68221, 258.807, 1.94992, 425973
0.5, 0.6, 0.6, 0.5, 1.471, 1.47, 1.5, 1.5, 1.68221, 258.807, -1.94992, 425973
0.5, 0.6, 0.6, 0.5, 1.442, 1.44, 1.47, 1.471, 1.68015, 256.287, -1.15041, 425892
0.5, 0.6, 0.6, 0.5, 1.413, 1.41, 1.44, 1.442, 1.68304, 256.839, -2.37758, 426367
0.5, 0.6, 0.6, 0.5, 1.384, 1.38, 1.41, 1.413, 1.68615, 257.901, -2.59254, 427205
0.5, 0.6, 0.6, 0.5, 1.355, 1.35, 1.38, 1.384, 1.68957, 259.042, -2.63966, 428121
0.5, 0.6, 0.6, 0.5, 1.326, 1.32, 1.35, 1.355, 1.69285, 260.178, -2.62324, 428977
0.5, 0.6, 0.6, 0.5, 1.297, 1.29, 1.32, 1.326, 1.69594, 261.263, -2.28002, 429857
0.5, 0.6, 0.6, 0.5, 1.269, 1.26, 1.29, 1.297, 1.69747, 261.93, -1.67779, 430379
0.5, 0.6, 0.6, 0.5, 1.24, 1.23, 1.26, 1.269, 1.6977, 262.116, -1.6624, 430489
0.5, 0.6, 0.6, 0.5, 1.211, 1.2, 1.23, 1.24, 1.69788, 262.339, -1.17669, 430524
0.5, 0.6, 0.6, 0.5, 1.182, 1.17, 1.2, 1.211, 1.69769, 262.45, -1.2284, 430379
0.5, 0.6, 0.6, 0.5, 1.153, 1.141, 1.17, 1.182, 1.69786, 262.444, -1.65823, 430328
0.5, 0.6, 0.6, 0.5, 1.124, 1.111, 1.141, 1.153, 1.69852, 262.38, -2.41076, 430449
0.5, 0.6, 0.6, 0.5, 1.095, 1.081, 1.111, 1.124, 1.69833, 262.252, -2.02876, 430494
0.5, 0.6, 0.6, 0.5, 1.066, 1.051, 1.081, 1.095, 1.69767, 262.096, -1.55406, 430235
0.5, 0.6, 0.6, 0.5, 1.037, 1.021, 1.051, 1.066, 1.69777, 262.089, -2.48708, 430260
0.5, 0.6, 0.6, 0.5, 1.008, 0.991, 1.021, 1.037, 1.69899, 262.194, -2.13398, 430618
0.5, 0.6, 0.6, 0.5, 0.979, 0.961, 0.991, 1.008, 1.69797, 262.024, -1.29924, 430616
0.5, 0.6, 0.6, 0.5, 0.95, 0.931, 0.961, 0.979, 1.6994, 262.18, -1.61473, 430748
0.5, 0.6, 0.6, 0.5, 0.921, 0.901, 0.931, 0.95, 1.69975, 262.466, -1.31651, 430804
0.5, 0.6, 0.6, 0.5, 0.892, 0.871, 0.901, 0.921, 1.69915, 262.482, -2.03704, 430528
0.5, 0.6, 0.6, 0.5, 0.864, 0.841, 0.871, 0.892, 1.6989, 262.447, -2.3202, 430374
0.5, 0.6, 0.6, 0.5, 0.835, 0.811, 0.841, 0.864, 1.69897, 262.406, -3.04792, 430254
0.5, 0.6, 0.6, 0.5, 0.806, 0.781, 0.811, 0.835, 1.6989, 262.301, -2.86838, 430277
0.5, 0.6, 0.6, 0.5, 0.777, 0.751, 0.781, 0.806, 1.69874, 262.159, -2.1623, 430171
0.5, 0.6, 0.6, 0.5, 0.748, 0.721, 0.751, 0.777, 1.69922, 262.208, -2.80395, 430229
0.5, 0.6, 0.6, 0.5, 0.719, 0.691, 0.721, 0.748, 1.69952, 262.179, -2.35154, 430405
0.5, 0.6, 0.6, 0.5, 0.69, 0.661, 0.691, 0.719, 1.69935, 262.137, -2.30285, 430389
0.5, 0.6, 0.6, 0.5, 0.661, 0.631, 0.661, 0.69, 1.69955, 262.113, -3.06432, 430434
0.5, 0.6, 0.6, 0.5, 0.632, 0.601, 0.631, 0.661, 1.69929, 262.013, -2.36742, 430554
0.5, 0.6, 0.6, 0.5, 0.603, 0.571, 0.601, 0.632, 1.69873, 261.891, -1.56594, 430671
0.5, 0.6, 0.6, 0.5, 0.574, 0.541, 0.571, 0.603, 1.69874, 261.906, -1.43941, 430819
0.5, 0.6, 0.6, 0.5, 0.545, 0.511, 0.541, 0.574, 1.69903, 262.051, -1.48865, 431292
0.5, 0.6, 0.6, 0.5, 0.516, 0.481, 0.511, 0.545, 1.69862, 262.244, -0.226903, 431535
0.5, 0.6, 0.6, 0.5, 0.487, 0.452, 0.481, 0.516, 1.69923, 263.584, 0.0687282, 431967
0.5, 0.6, 0.6, 0.5, 0.458, 0.422, 0.452, 0.487, 1.69923, 263.584, -0.0687282, 431967
0.6, 0.7, 0.7, 0.6, 1.5, 1.5, 1.531, 1.53, 1.49711, 187.037, 0.141015, 372208
0.6, 0.7, 0.7, 0.6, 1.47, 1.469, 1.5, 1.5, 1.49711, 187.037, -0.141015, 372208
0.6, 0.7, 0.7, 0.6, 1.44, 1.438, 1.469, 1.47, 1.49765, 186.499, -1.30971, 372531
0.6, 0.7, 0.7, 0.6, 1.41, 1.407, 1.438, 1.44, 1.49917, 186.929, -1.23578, 373070
0.6, 0.7, 0.7, 0.6, 1.38, 1.376, 1.407, 1.41, 1.50062, 187.516, -1.28494, 373547
0.6, 0.7, 0.7, 0.6, 1.35, 1.345, 1.376, 1.38, 1.50205, 188.069, -1.24519, 373977
0.6, 0.7, 0.7, 0.6, 1.32, 1.314, 1.345, 1.35, 1.50362, 188.632, -1.22964, 374437
0.6, 0.7, 0.7, 0.6, 1.29, 1.283, 1.314, 1.32, 1.50505, 189.191, -1.2252, 374859
0.6, 0.7, 0.7, 0.6, 1.26, 1.253, 1.283, 1.29, 1.50624, 189.74, -1.06241, 375223
0.6, 0.7, 0.7, 0.6, 1.23, 1.222, 1.253, 1.26, 1.50685, 190.016, -0.724991, 375460
0.6, 0.7, 0.7, 0.6, 1.2, 1.191, 1.222, 1.23, 1.50699, 190.138, -0.624153, 375517
0.6, 0.7, 0.7, 0.6, 1.17, 1.16, 1.191, 1.2, 1.50681, 190.137, -1.07139, 375420
0.6, 0.7, 0.7, 0.6, 1.141, 1.129, 1.16, 1.17, 1.50723, 190.217, -1.19362, 375530
0.6, 0.7, 0.7, 0.6, 1.111, 1.098, 1.129, 1.141, 1.50739, 190.148, -0.787651, 375590
0.6, 0.7, 0.7, 0.6, 1.081, 1.067, 1.098, 1.111, 1.50727, 190.027, -1.09541, 375550
0.6, 0.7, 0.7, 0.6, 1.051, 1.036, 1.067, 1.081, 1.50685, 189.965, -0.51703, 375431
0.6, 0.7, 0.7, 0.6, 1.021, 1.005, 1.036, 1.051, 1.50666, 189.956, -1.1627, 375352
0.6, 0.7, 0.7, 0.6, 0.991, 0.974, 1.005, 1.021, 1.50744, 189.99, -1.0111, 375586
0.6, 0.7, 0.7, 0.6, 0.961, 0.943, 0.974, 0.991, 1.50698, 189.867, -0.576086, 375553
0.6, 0.7, 0.7, 0.6, 0.931, 0.912, 0.943, 0.961, 1.50777, 189.98, -0.92505, 375696
0.6, 0.7, 0.7, 0.6, 0.901, 0.881, 0.912, 0.931, 1.508, 190.186, -0.61623, 375771
0.6, 0.7, 0.7, 0.6, 0.871, 0.85, 0.881, 0.901, 1.50774, 190.211, -1.27167, 375634
0.6, 0.7, 0.7, 0.6, 0.841, 0.82, 0.85, 0.871, 1.50757, 190.18, -1.08943, 375586
0.6, 0.7, 0.7, 0.6, 0.811, 0.789, 0.82, 0.841, 1.50743, 190.102, -1.89167, 375412
0.6, 0.7, 0.7, 0.6, 0.781, 0.758, 0.789, 0.811, 1.50736, 190.022, -1.67108, 375432
0.6, 0.7, 0.7, 0.6, 0.751, 0.727, 0.758, 0.781, 1.50704, 189.855, -1.23107, 375342
0.6, 0.7, 0.7, 0.6, 0.721, 0.696, 0.727, 0.751, 1.50708, 189.846, -1.6892, 375258
0.6, 0.7, 0.7, 0.6, 0.691, 0.665, 0.696, 0.721, 1.50764, 189.875, -1.3409, 375449
0.6, 0.7, 0.7, 0.6, 0.661, 0.634, 0.665, 0.691, 1.50735, 189.815, -1.18473, 375453
0.6, 0.7, 0.7, 0.6, 0.631, 0.603, 0.634, 0.661, 1.50745, 189.764, -1.40568, 375390
0.6, 0.7, 0.7, 0.6, 0.601, 0.572, 0.603, 0.631, 1.50714, 189.69, -0.925495, 375426
0.6, 0.7, 0.7, 0.6, 0.571, 0.541, 0.572, 0.601, 1.5074, 189.673, -0.875475, 375457
0.6, 0.7, 0.7, 0.6, 0.541, 0.51, 0.541, 0.571, 1.50736, 189.671, -0.724142, 375576
0.6, 0.7, 0.7, 0.6, 0.511, 0.479, 0.51, 0.541, 1.5075, 189.786, -0.789902, 375700
0.6, 0.7, 0.7, 0.6, 0.481, 0.448, 0.479, 0.511, 1.5079, 189.957, -0.882438, 375940
0.6, 0.7, 0.7, 0.6, 0.452, 0.417, 0.448, 0.481, 1.50855, 190.538, -0.0590096, 376172
0.6, 0.7, 0.7, 0.6, 0.422, 0.387, 0.417, 0.452, 1.50855, 190.538, 0.0590096, 376172
0.7, 0.8, 0.8, 0.7, 1.5, 1.5, 1.532, 1.531, 1.35175, 124.776, 0.573173, 320645
0.7, 0.8, 0.8, 0.7, 1.469, 1.468, 1.5, 1.5, 1.35175, 124.776, -0.573173, 320645
0.7, 0.8, 0.8, 0.7, 1.438, 1.436, 1.468, 1.469, 1.35147, 124.775, -0.0667503, 320796
0.7, 0.8, 0.8, 0.7, 1.407, 1.404, 1.436, 1.438, 1.35193, 124.997, -0.419501, 320971
0.7, 0.8, 0.8, 0.7, 1.376, 1.373, 1.404, 1.407, 1.35277, 125.324, -0.444775, 321279
0.7, 0.8, 0.8, 0.7, 1.345, 1.341, 1.373, 1.376, 1.35349, 125.621, -0.358637, 321538
0.7, 0.8, 0.8, 0.7, 1.314, 1.309, 1.341, 1.345, 1.35431, 125.908, -0.084893, 321807
0.7, 0.8, 0.8, 0.7, 1.283, 1.277, 1.309, 1.314, 1.35478, 126.124, 0.23524, 321936
0.7, 0.8, 0.8, 0.7, 1.253, 1.245, 1.277, 1.283, 1.35488, 126.336, 0.038483, 321996
0.7, 0.8, 0.8, 0.7, 1.222, 1.213, 1.245, 1.253, 1.35528, 126.555, -0.0398537, 322144
0.7, 0.8, 0.8, 0.7, 1.191, 1.181, 1.213, 1.222, 1.35588, 126.727, -0.0832999, 322336
0.7, 0.8, 0.8, 0.7, 1.16, 1.15, 1.181, 1.191, 1.35605, 126.794, 0.0324481, 322376
0.7, 0.8, 0.8, 0.7, 1.129, 1.118, 1.15, 1.16, 1.35588, 126.774, 0.0156352, 322306
0.7, 0.8, 0.8, 0.7, 1.098, 1.086, 1.118, 1.129, 1.35634, 126.759, -0.134634, 322440
0.7, 0.8, 0.8, 0.7, 1.067, 1.054, 1.086, 1.098, 1.3564, 126.771, -0.108394, 322471
0.7, 0.8, 0.8, 0.7, 1.036, 1.022, 1.054, 1.067, 1.3563, 126.753, -0.363861, 322432
0.7, 0.8, 0.8, 0.7, 1.005, 0.99, 1.022, 1.036, 1.35625, 126.757, -0.276609, 322422
0.7, 0.8, 0.8, 0.7, 0.974, 0.959, 0.99, 1.005, 1.35606, 126.703, -0.385304, 322334
0.7, 0.8, 0.8, 0.7, 0.943, 0.927, 0.959, 0.974, 1.35641, 126.661, -0.548175, 322445
0.7, 0.8, 0.8, 0.7, 0.912, 0.895, 0.927, 0.943, 1.35667, 126.715, -0.558874, 322516
0.7, 0.8, 0.8, 0.7, 0.881, 0.863, 0.895, 0.912, 1.35705, 126.866, -0.384758, 322644
0.7, 0.8, 0.8, 0.7, 0.85, 0.831, 0.863, 0.881, 1.35704, 126.915, -0.226567, 322660
0.7, 0.8, 0.8, 0.7, 0.82, 0.799, 0.831, 0.85, 1.35677, 126.873, -0.549481, 322559
0.7, 0.8, 0.8, 0.7, 0.789, 0.767, 0.799, 0.82, 1.35662, 126.831, -0.634876, 322494
0.7, 0.8, 0.8, 0.7, 0.758, 0.736, 0.767, 0.789, 1.35634, 126.754, -0.53834, 322406
0.7, 0.8, 0.8, 0.7, 0.727, 0.704, 0.736, 0.758, 1.35614, 126.658, -0.736299, 322307
0.7, 0.8, 0.8, 0.7, 0.696, 0.672, 0.704, 0.727, 1.35625, 126.623, -0.84903, 322320
0.7, 0.8, 0.8, 0.7, 0.665, 0.64, 0.672, 0.696, 1.3563, 126.599, -0.810785, 322314
0.7, 0.8, 0.8, 0.7, 0.634, 0.608, 0.64, 0.665, 1.35614, 126.546, -0.704039, 322298
0.7, 0.8, 0.8, 0.7, 0.603, 0.576, 0.608, 0.634, 1.35595, 126.465, -0.657026, 322185
0.7, 0.8, 0.8, 0.7, 0.572, 0.544, 0.576, 0.603, 1.35615, 126.417, -0.841056, 322250
0.7, 0.8, 0.8, 0.7, 0.541, 0.513, 0.544, 0.572, 1.35616, 126.383, -0.810919, 322250
0.7, 0.8, 0.8, 0.7, 0.51, 0.481, 0.513, 0.541, 1.3563, 126.364, -0.574697, 322288
0.7, 0.8, 0.8, 0.7, 0.479, 0.449, 0.481, 0.51, 1.35629, 126.399, -0.395216, 322355
0.7, 0.8, 0.8, 0.7, 0.448, 0.417, 0.449, 0.479, 1.35638, 126.455, -0.449725, 322404
0.7, 0.8, 0.8, 0.7, 0.417, 0.385, 0.417, 0.448, 1.35667, 126.666, -0.0518451, 322505
0.7, 0.8, 0.8, 0.7, 0.387, 0.353, 0.385, 0.417, 1.35667, 126.666, 0.0518451, 322505
0.8, 0.9, 0.9, 0.8, 1.5, 1.5, 1.533, 1.532, 1.22655, 73.727, 0.216954, 275167
0.8, 0.9, 0.9, 0.8, 1.468, 1.467, 1.5, 1.5, 1.22655, 73.727, -0.216954, 275167
0.8, 0.9, 0.9, 0.8, 1.436, 1.435, 1.467, 1.468, 1.22648, 73.7915, 0.0411169, 275236
0.8, 0.9, 0.9, 0.8, 1.404, 1.402, 1.435, 1.436, 1.22664, 73.8608, -0.0661948, 275314
0.8, 0.9, 0.9, 0.8, 1.373, 1.369, 1.402, 1.404, 1.22687, 73.9998, -0.056302, 275409
0.8, 0.9, 0.9, 0.8, 1.341, 1.336, 1.369, 1.373, 1.22712, 74.1751, -0.00114146, 275501
0.8, 0.9, 0.9, 0.8, 1.309, 1.304, 1.336, 1.341, 1.22747, 74.2995, 0.0968616, 275635
0.8, 0.9, 0.9, 0.8, 1.277, 1.271, 1.304, 1.309, 1.22757, 74.3914, 0.0900634, 275685
0.8, 0.9, 0.9, 0.8, 1.245, 1.238, 1.271, 1.277, 1.2278, 74.4419, 0.00904863, 275763
0.8, 0.9, 0.9, 0.8, 1.213, 1.206, 1.238, 1.245, 1.22809, 74.5747, 0.0534218, 275866
0.8, 0.9, 0.9, 0.8, 1.181, 1.173, 1.206, 1.213, 1.22829, 74.6901, 0.00830218, 275943
0.8, 0.9, 0.9, 0.8, 1.15, 1.14, 1.173, 1.181, 1.22849, 74.7724, -0.0119058, 276001
0.8, 0.9, 0.9, 0.8, 1.118, 1.107, 1.14, 1.15, 1.22857, 74.78, 0.0200221, 276006
0.8, 0.9, 0.9, 0.8, 1.086, 1.075, 1.107, 1.118, 1.22879, 74.7895, 0.0780229, 276063
0.8, 0.9, 0.9, 0.8, 1.054, 1.042, 1.075, 1.086, 1.22871, 74.7958, 0.0535784, 276037
0.8, 0.9, 0.9, 0.8, 1.022, 1.009, 1.042, 1.054, 1.22879, 74.8039, 0.0177559, 276062
0.8, 0.9, 0.9, 0.8, 0.99, 0.977, 1.009, 1.022, 1.22872, 74.7798, -0.00407216, 276038
0.8, 0.9, 0.9, 0.8, 0.959, 0.944, 0.977, 0.99, 1.22902, 74.7908, -0.0758739, 276124
0.8, 0.9, 0.9, 0.8, 0.927, 0.911, 0.944, 0.959, 1.22911, 74.7989, -0.024769, 276151
0.8, 0.9, 0.9, 0.8, 0.895, 0.878, 0.911, 0.927, 1.2291, 74.8292, -0.0154132, 276151
0.8, 0.9, 0.9, 0.8, 0.863, 0.846, 0.878, 0.895, 1.22926, 74.8691, -0.0496283, 276198
0.8, 0.9, 0.9, 0.8, 0.831, 0.813, 0.846, 0.863, 1.22933, 74.9053, -0.0403354, 276222
0.8, 0.9, 0.9, 0.8, 0.799, 0.78, 0.813, 0.831, 1.22924, 74.9139, -0.135978, 276193
0.8, 0.9, 0.9, 0.8, 0.767, 0.747, 0.78, 0.799, 1.22922, 74.8817, -0.254639, 276182
0.8, 0.9, 0.9, 0.8, 0.736, 0.715, 0.747, 0.767, 1.22905, 74.8329, -0.172646, 276130
0.8, 0.9, 0.9, 0.8, 0.704, 0.682, 0.715, 0.736, 1.22906, 74.816, -0.234361, 276112
0.8, 0.9, 0.9, 0.8, 0.672, 0.649, 0.682, 0.704, 1.22898, 74.7588, -0.338878, 276079
0.8, 0.9, 0.9, 0.8, 0.64, 0.617, 0.649, 0.672, 1.22878, 74.7271, -0.267906, 276029
0.8, 0.9, 0.9, 0.8, 0.608, 0.584, 0.617, 0.64, 1.22878, 74.6823, -0.344237, 275997
0.8, 0.9, 0.9, 0.8, 0.576, 0.551, 0.584, 0.608, 1.22867, 74.6216, -0.322031, 275968
0.8, 0.9, 0.9, 0.8, 0.544, 0.518, 0.551, 0.576, 1.22852, 74.566, -0.373108, 275889