'cellnumber','cornerlocs_x','cornerlocs_y','adjacent_cells','edge_state','initial_conditions'
1,-0.0036,0,0,-0.0036,0.0993,0.0989,0.1023,0.1027,-2,2,32,-2,3,1,1,0,250000,
2,-0.0036,0,0,-0.0036,0.0959,0.0955,0.0989,0.0993,-2,3,33,1,3,1,1,0,250000,
3,-0.0036,0,0,-0.0036,0.0924,0.0921,0.0955,0.0959,-2,4,34,2,3,1,1,0,250000,
4,-0.0036,0,0,-0.0036,0.089,0.0887,0.0921,0.0924,-2,5,35,3,3,1,1,0,250000,
5,-0.0036,0,0,-0.0036,0.0856,0.0853,0.0887,0.089,-2,6,36,4,3,1,1,0,250000,
6,-0.0036,0,0,-0.0036,0.0822,0.0818,0.0853,0.0856,-2,7,37,5,3,1,1,0,250000,
7,-0.0036,0,0,-0.0036,0.0787,0.0784,0.0818,0.0822,-2,8,38,6,3,1,1,0,250000,
8,-0.0036,0,0,-0.0036,0.0753,0.075,0.0784,0.0787,-2,9,39,7,3,1,1,0,250000,
9,-0.0036,0,0,-0.0036,0.0719,0.0716,0.075,0.0753,-2,10,40,8,3,1,1,0,250000,
10,-0.0036,0,0,-0.0036,0.0685,0.0682,0.0716,0.0719,-2,11,41,9,3,1,1,0,250000,
11,-0.0036,0,0,-0.0036,0.065,0.0648,0.0682,0.0685,-2,12,42,10,3,1,1,0,250000,
12,-0.0036,0,0,-0.0036,0.0616,0.0614,0.0648,0.065,-2,13,43,11,3,1,1,0,250000,
13,-0.0036,0,0,-0.0036,0.0582,0.058,0.0614,0.0616,-2,14,44,12,3,1,1,0,250000,
14,-0.0036,0,0,-0.0036,0.0548,0.0546,0.058,0.0582,-2,15,45,13,3,1,1,0,250000,
15,-0.0036,0,0,-0.0036,0.0514,0.0512,0.0546,0.0548,-2,16,46,14,3,1,1,0,250000,
16,-0.0036,0,0,-0.0036,0.0479,0.0477,0.0512,0.0514,-2,17,47,15,3,1,1,0,250000,
17,-0.0036,0,0,-0.0036,0.0445,0.0443,0.0477,0.0479,-2,18,48,16,3,1,1,0,250000,
18,-0.0036,0,0,-0.0036,0.0411,0.0409,0.0443,0.0445,-2,19,49,17,3,1,1,0,250000,
19,-0.0036,0,0,-0.0036,0.0377,0.0375,0.0409,0.0411,-2,20,50,18,3,1,1,0,250000,
20,-0.0036,0,0,-0.0036,0.0342,0.0341,0.0375,0.0377,-2,21,51,19,3,1,1,0,250000,
21,-0.0036,0,0,-0.0036,0.0308,0.0307,0.0341,0.0342,-2,22,52,20,3,1,1,0,250000,
22,-0.0036,0,0,-0.0036,0.0274,0.0273,0.0307,0.0308,-2,23,53,21,3,1,1,0,250000,
23,-0.0036,0,0,-0.0036,0.024,0.0239,0.0273,0.0274,-2,24,54,22,3,1,1,0,250000,
24,-0.0036,0,0,-0.0036,0.0205,0.0205,0.0239,0.024,-2,25,55,23,3,1,1,0,250000,
25,-0.0036,0,0,-0.0036,0.0171,0.0171,0.0205,0.0205,-2,26,56,24,3,1,1,0,250000,
26,-0.0036,0,0,-0.0036,0.0137,0.0136,0.0171,0.0171,-2,27,57,25,3,1,1,0,250000,
27,-0.0036,0,0,-0.0036,0.0103,0.0102,0.0136,0.0137,-2,28,58,26,3,1,1,0,250000,
28,-0.0036,0,0,-0.0036,0.0068,0.0068,0.0102,0.0103,-2,29,59,27,3,1,1,0,250000,
29,-0.0036,0,0,-0.0036,0.0034,0.0034,0.0068,0.0068,-2,30,60,28,3,1,1,0,250000,
30,-0.0036,0,0,-0.0036,0,0,0.0034,0.0034,-2,-2,61,29,3,1,1,0,250000,
31,0,0.0036,0.0036,0,0.1023,0.1019,0.1053,0.1057,-2,32,63,-2,1,1.14431,-88.6907,12.0898,318929,
32,0,0.0036,0.0036,0,0.0989,0.0985,0.1019,0.1023,1,33,64,31,0,1.14431,-89.1814,7.67377,318929,
33,0,0.0036,0.0036,0,0.0955,0.0951,0.0985,0.0989,2,34,65,32,0,1.14688,-89.8419,6.30556,320089,
34,0,0.0036,0.0036,0,0.0921,0.0917,0.0951,0.0955,3,35,66,33,0,1.14804,-89.9995,5.03661,320617,
35,0,0.0036,0.0036,0,0.0887,0.0883,0.0917,0.0921,4,36,67,34,0,1.14786,-89.2587,4.17912,320539,
36,0,0.0036,0.0036,0,0.0853,0.0849,0.0883,0.0887,5,37,68,35,0,1.14745,-88.0211,3.67273,320403,
37,0,0.0036,0.0036,0,0.0818,0.0815,0.0849,0.0853,6,38,69,36,0,1.14743,-85.2413,3.2228,320364,
38,0,0.0036,0.0036,0,0.0784,0.0781,0.0815,0.0818,7,39,70,37,0,1.14966,-88.8769,3.42524,321288,
39,0,0.0036,0.0036,0,0.075,0.0747,0.0781,0.0784,8,40,71,38,0,1.15062,-90.2223,3.18268,321669,
40,0,0.0036,0.0036,0,0.0716,0.0713,0.0747,0.075,9,41,72,39,0,1.15103,-90.6117,2.86393,321828,
41,0,0.0036,0.0036,0,0.0682,0.0679,0.0713,0.0716,10,42,73,40,0,1.15067,-90.3048,2.72527,321655,
42,0,0.0036,0.0036,0,0.0648,0.0645,0.0679,0.0682,11,43,74,41,0,1.15043,-90.1134,2.77617,321578,
43,0,0.0036,0.0036,0,0.0614,0.0611,0.0645,0.0648,12,44,75,42,0,1.15141,-90.6496,2.75519,321965,
44,0,0.0036,0.0036,0,0.058,0.0577,0.0611,0.0614,13,45,76,43,0,1.15156,-90.6232,2.73609,321994,
45,0,0.0036,0.0036,0,0.0546,0.0543,0.0577,0.058,14,46,77,44,0,1.15173,-90.4619,2.76513,322082,
46,0,0.0036,0.0036,0,0.0512,0.0509,0.0543,0.0546,15,47,78,45,0,1.15142,-88.9694,2.34155,322000,
47,0,0.0036,0.0036,0,0.0477,0.0476,0.0509,0.0512,16,48,79,46,0,1.14882,-82.1687,1.94123,320851,
48,0,0.0036,0.0036,0,0.0443,0.0442,0.0476,0.0477,17,49,80,47,0,1.15198,-88.9144,2.44996,322196,
49,0,0.0036,0.0036,0,0.0409,0.0408,0.0442,0.0443,18,50,81,48,0,1.15257,-90.7368,2.2676,322397,
50,0,0.0036,0.0036,0,0.0375,0.0374,0.0408,0.0409,19,51,82,49,0,1.15263,-91.0684,2.27061,322390,
51,0,0.0036,0.0036,0,0.0341,0.034,0.0374,0.0375,20,52,83,50,0,1.15231,-90.9414,2.43657,322245,
52,0,0.0036,0.0036,0,0.0307,0.0306,0.034,0.0341,21,53,84,51,0,1.15222,-90.9138,2.51183,322239,
53,0,0.0036,0.0036,0,0.0273,0.0272,0.0306,0.0307,22,54,85,52,0,1.15128,-90.2608,2.61826,321845,
54,0,0.0036,0.0036,0,0.0239,0.0238,0.0272,0.0273,23,55,86,53,0,1.15177,-90.485,3.00485,322030,
55,0,0.0036,0.0036,0,0.0205,0.0204,0.0238,0.0239,24,56,87,54,0,1.15229,-90.6816,3.08544,322273,
56,0,0.0036,0.0036,0,0.0171,0.017,0.0204,0.0205,25,57,88,55,0,1.15183,-89.4875,3.00472,322058,
57,0,0.0036,0.0036,0,0.0136,0.0136,0.017,0.0171,26,58,89,56,0,1.15007,-85.6448,3.58307,321267,
58,0,0.0036,0.0036,0,0.0102,0.0102,0.0136,0.0136,27,59,90,57,0,1.15202,-89.1057,4.32622,322154,
59,0,0.0036,0.0036,0,0.0068,0.0068,0.0102,0.0102,28,60,91,58,0,1.15211,-89.4681,4.86973,322179,
60,0,0.0036,0.0036,0,0.0034,0.0034,0.0068,0.0068,29,61,92,59,0,1.1539,-89.9653,6.0898,322909,
61,0,0.0036,0.0036,0,0,0,0.0034,0.0034,30,62,93,60,0,1.15661,-90.3491,7.67547,324097,
62,0,0.0036,0.0036,0,-0.0034,-0.0034,0,0,-2,-2,94,61,1,1.15661,-89.8303,12.3445,324097,
63,0.0036,0.0071,0.0071,0.0036,0.1019,0.1015,0.1049,0.1053,31,64,95,-2,1,1.12265,-80.5463,9.26056,314800,
64,0.0036,0.0071,0.0071,0.0036,0.0985,0.0981,0.1015,0.1019,32,65,96,63,0,1.12265,-80.6146,8.6462,314800,
65,0.0036,0.0071,0.0071,0.0036,0.0951,0.0947,0.0981,0.0985,33,66,97,64,0,1.12437,-81.0144,8.24658,315457,
66,0.0036,0.0071,0.0071,0.0036,0.0917,0.0913,0.0947,0.0951,34,67,98,65,0,1.1255,-80.9164,7.45062,315902,
67,0.0036,0.0071,0.0071,0.0036,0.0883,0.0879,0.0913,0.0917,35,68,99,66,0,1.12522,-79.3454,6.94319,315743,
68,0.0036,0.0071,0.0071,0.0036,0.0849,0.0846,0.0879,0.0883,36,69,100,67,0,1.12713,-77.1258,6.19828,316615,
69,0.0036,0.0071,0.0071,0.0036,0.0815,0.0812,0.0846,0.0849,37,70,101,68,0,1.12871,-79.0256,5.13319,317215,
70,0.0036,0.0071,0.0071,0.0036,0.0781,0.0778,0.0812,0.0815,38,71,102,69,0,1.12722,-79.2353,4.57989,316401,
71,0.0036,0.0071,0.0071,0.0036,0.0747,0.0744,0.0778,0.0781,39,72,103,70,0,1.12779,-80.0904,4.73879,316543,
72,0.0036,0.0071,0.0071,0.0036,0.0713,0.071,0.0744,0.0747,40,73,104,71,0,1.12809,-80.3347,4.66004,316627,
73,0.0036,0.0071,0.0071,0.0036,0.0679,0.0676,0.071,0.0713,41,74,105,72,0,1.12744,-79.3871,4.74927,316335,
74,0.0036,0.0071,0.0071,0.0036,0.0645,0.0643,0.0676,0.0679,42,75,106,73,0,1.12882,-77.7582,4.3335,316970,
75,0.0036,0.0071,0.0071,0.0036,0.0611,0.0609,0.0643,0.0645,43,76,107,74,0,1.12891,-79.8834,4.03855,316866,
76,0.0036,0.0071,0.0071,0.0036,0.0577,0.0575,0.0609,0.0611,44,77,108,75,0,1.12845,-79.751,4.37564,316608,
77,0.0036,0.0071,0.0071,0.0036,0.0543,0.0541,0.0575,0.0577,45,78,109,76,0,1.1295,-80.1133,5.01782,317022,
78,0.0036,0.0071,0.0071,0.0036,0.0509,0.0507,0.0541,0.0543,46,79,110,77,0,1.13107,-80.3935,5.22986,317761,
79,0.0036,0.0071,0.0071,0.0036,0.0476,0.0474,0.0507,0.0509,47,80,111,78,0,1.13369,-80.0401,3.93452,318993,
80,0.0036,0.0071,0.0071,0.0036,0.0442,0.044,0.0474,0.0476,48,81,112,79,0,1.13104,-79.9033,3.01666,317613,
81,0.0036,0.0071,0.0071,0.0036,0.0408,0.0406,0.044,0.0442,49,82,113,80,0,1.13034,-80.298,3.4499,317239,
82,0.0036,0.0071,0.0071,0.0036,0.0374,0.0372,0.0406,0.0408,50,83,114,81,0,1.12965,-80.2409,3.87887,316933,
83,0.0036,0.0071,0.0071,0.0036,0.034,0.0338,0.0372,0.0374,51,84,115,82,0,1.12894,-79.883,4.41108,316664,
84,0.0036,0.0071,0.0071,0.0036,0.0306,0.0304,0.0338,0.034,52,85,116,83,0,1.1298,-80.0113,4.75647,317079,
85,0.0036,0.0071,0.0071,0.0036,0.0272,0.0271,0.0304,0.0306,53,86,117,84,0,1.12984,-77.4916,4.43096,317145,
86,0.0036,0.0071,0.0071,0.0036,0.0238,0.0237,0.0271,0.0272,54,87,118,85,0,1.12912,-79.1699,4.76491,316759,
87,0.0036,0.0071,0.0071,0.0036,0.0204,0.0203,0.0237,0.0238,55,88,119,86,0,1.13033,-80.1712,5.25175,317280,
88,0.0036,0.0071,0.0071,0.0036,0.017,0.0169,0.0203,0.0204,56,89,120,87,0,1.13027,-79.3533,5.56931,317219,
89,0.0036,0.0071,0.0071,0.0036,0.0136,0.0135,0.0169,0.017,57,90,121,88,0,1.1309,-78.2535,6.06145,317539,
90,0.0036,0.0071,0.0071,0.0036,0.0102,0.0101,0.0135,0.0136,58,91,122,89,0,1.13129,-78.6531,6.42414,317643,
91,0.0036,0.0071,0.0071,0.0036,0.0068,0.0068,0.0101,0.0102,59,92,123,90,0,1.1315,-76.3193,6.54481,317689,
92,0.0036,0.0071,0.0071,0.0036,0.0034,0.0034,0.0068,0.0068,60,93,124,91,0,1.13114,-77.8163,7.23232,317348,
93,0.0036,0.0071,0.0071,0.0036,0,0,0.0034,0.0034,61,94,125,92,0,1.13263,-78.3989,8.2977,317866,
94,0.0036,0.0071,0.0071,0.0036,-0.0034,-0.0034,0,0,62,-2,126,93,1,1.13263,-78.3082,9.1142,317866,
95,0.0071,0.0107,0.0107,0.0071,0.1015,0.101,0.1044,0.1049,63,96,127,-2,1,1.12112,-79.4678,9.25707,319721,
96,0.0071,0.0107,0.0107,0.0071,0.0981,0.0977,0.101,0.1015,64,97,128,95,0,1.12112,-79.5616,8.41285,319721,
97,0.0071,0.0107,0.0107,0.0071,0.0947,0.0943,0.0977,0.0981,65,98,129,96,0,1.1213,-81.9012,8.60898,319695,
98,0.0071,0.0107,0.0107,0.0071,0.0913,0.0909,0.0943,0.0947,66,99,130,97,0,1.12278,-82.4076,8.56751,320262,
99,0.0071,0.0107,0.0107,0.0071,0.0879,0.0876,0.0909,0.0913,67,100,131,98,0,1.12277,-79.612,8.1677,320171,
100,0.0071,0.0107,0.0107,0.0071,0.0846,0.0842,0.0876,0.0879,68,101,132,99,0,1.12684,-85.143,7.91986,321838,
101,0.0071,0.0107,0.0107,0.0071,0.0812,0.0808,0.0842,0.0846,69,102,133,100,0,1.12448,-81.4736,6.41797,320688,
102,0.0071,0.0107,0.0107,0.0071,0.0778,0.0775,0.0808,0.0812,70,103,134,101,0,1.12444,-78.6715,5.71465,320633,
103,0.0071,0.0107,0.0107,0.0071,0.0744,0.0741,0.0775,0.0778,71,104,135,102,0,1.12437,-80.8158,5.84883,320507,
104,0.0071,0.0107,0.0107,0.0071,0.071,0.0707,0.0741,0.0744,72,105,136,103,0,1.12509,-81.3427,6.13026,320765,
105,0.0071,0.0107,0.0107,0.0071,0.0676,0.0674,0.0707,0.071,73,106,137,104,0,1.12512,-79.4154,6.21067,320759,
106,0.0071,0.0107,0.0107,0.0071,0.0643,0.064,0.0674,0.0676,74,107,138,105,0,1.12912,-85.6408,5.78334,322446,
107,0.0071,0.0107,0.0107,0.0071,0.0609,0.0606,0.064,0.0643,75,108,139,106,0,1.12553,-81.5622,4.97241,320730,
108,0.0071,0.0107,0.0107,0.0071,0.0575,0.0573,0.0606,0.0609,76,109,140,107,0,1.12606,-78.7385,5.14395,320961,
109,0.0071,0.0107,0.0107,0.0071,0.0541,0.0539,0.0573,0.0575,77,110,141,108,0,1.12557,-80.3866,5.61623,320610,
110,0.0071,0.0107,0.0107,0.0071,0.0507,0.0505,0.0539,0.0541,78,111,142,109,0,1.12698,-81.651,6.18778,321146,
111,0.0071,0.0107,0.0107,0.0071,0.0474,0.0472,0.0505,0.0507,79,112,143,110,0,1.12889,-82.3479,5.21133,321934,
112,0.0071,0.0107,0.0107,0.0071,0.044,0.0438,0.0472,0.0474,80,113,144,111,0,1.12596,-80.7243,4.52965,320586,
113,0.0071,0.0107,0.0107,0.0071,0.0406,0.0404,0.0438,0.044,81,114,145,112,0,1.12626,-80.9858,5.28938,320756,
114,0.0071,0.0107,0.0107,0.0071,0.0372,0.037,0.0404,0.0406,82,115,146,113,0,1.12601,-80.6456,5.82129,320713,
115,0.0071,0.0107,0.0107,0.0071,0.0338,0.0337,0.037,0.0372,83,116,147,114,0,1.12678,-78.8734,5.96259,321099,
116,0.0071,0.0107,0.0107,0.0071,0.0304,0.0303,0.0337,0.0338,84,117,148,115,0,1.12718,-81.65,6.36474,321204,
117,0.0071,0.0107,0.0107,0.0071,0.0271,0.0269,0.0303,0.0304,85,118,149,116,0,1.13011,-84.8371,6.31773,322471,
118,0.0071,0.0107,0.0107,0.0071,0.0237,0.0236,0.0269,0.0271,86,119,150,117,0,1.12688,-78.7088,5.93333,321034,
119,0.0071,0.0107,0.0107,0.0071,0.0203,0.0202,0.0236,0.0237,87,120,151,118,0,1.128,-80.9059,6.44686,321496,
120,0.0071,0.0107,0.0107,0.0071,0.0169,0.0168,0.0202,0.0203,88,121,152,119,0,1.12695,-79.4231,6.95704,320944,
121,0.0071,0.0107,0.0107,0.0071,0.0135,0.0135,0.0168,0.0169,89,122,153,120,0,1.12813,-76.9493,7.48465,321428,
122,0.0071,0.0107,0.0107,0.0071,0.0101,0.0101,0.0135,0.0135,90,123,154,121,0,1.12854,-79.9729,7.92796,321506,
123,0.0071,0.0107,0.0107,0.0071,0.0068,0.0067,0.0101,0.0101,91,124,155,122,0,1.13186,-83.4332,7.86625,322903,
124,0.0071,0.0107,0.0107,0.0071,0.0034,0.0034,0.0067,0.0068,92,125,156,123,0,1.12904,-77.1646,7.55513,321567,
125,0.0071,0.0107,0.0107,0.0071,0,0,0.0034,0.0034,93,126,157,124,0,1.12971,-78.873,8.34412,321734,
126,0.0071,0.0107,0.0107,0.0071,-0.0034,-0.0034,0,0,94,-2,158,125,1,1.12971,-78.7809,9.17298,321734,
127,0.0107,0.0143,0.0143,0.0107,0.101,0.1006,0.104,0.1044,95,128,159,-2,1,1.11991,-86.0417,9.85894,323266,
128,0.0107,0.0143,0.0143,0.0107,0.0977,0.0972,0.1006,0.101,96,129,160,127,0,1.11991,-86.1073,9.26872,323266,
129,0.0107,0.0143,0.0143,0.0107,0.0943,0.0939,0.0972,0.0977,97,130,161,128,0,1.11797,-80.4416,8.42664,322404,
130,0.0107,0.0143,0.0143,0.0107,0.0909,0.0905,0.0939,0.0943,98,131,162,129,0,1.1195,-82.5812,8.86097,322949,
131,0.0107,0.0143,0.0143,0.0107,0.0876,0.0872,0.0905,0.0909,99,132,163,130,0,1.12076,-82.5944,8.26887,323416,
132,0.0107,0.0143,0.0143,0.0107,0.0842,0.0838,0.0872,0.0876,100,133,164,131,0,1.11868,-81.6402,8.09967,322274,
133,0.0107,0.0143,0.0143,0.0107,0.0808,0.0805,0.0838,0.0842,101,134,165,132,0,1.12085,-79.9957,7.92812,323249,
134,0.0107,0.0143,0.0143,0.0107,0.0775,0.0771,0.0805,0.0808,102,135,166,133,0,1.12299,-84.1484,7.43543,324097,
135,0.0107,0.0143,0.0143,0.0107,0.0741,0.0738,0.0771,0.0775,103,136,167,134,0,1.12117,-79.2648,6.44034,323238,
136,0.0107,0.0143,0.0143,0.0107,0.0707,0.0704,0.0738,0.0741,104,137,168,135,0,1.12107,-80.9731,6.95341,323114,
137,0.0107,0.0143,0.0143,0.0107,0.0674,0.0671,0.0704,0.0707,105,138,169,136,0,1.12323,-82.3345,6.70516,324033,
138,0.0107,0.0143,0.0143,0.0107,0.064,0.0637,0.0671,0.0674,106,139,170,137,0,1.1217,-82.2393,6.16097,323151,
139,0.0107,0.0143,0.0143,0.0107,0.0606,0.0604,0.0637,0.064,107,140,171,138,0,1.12124,-78.9739,6.41616,322943,
140,0.0107,0.0143,0.0143,0.0107,0.0573,0.057,0.0604,0.0606,108,141,172,139,0,1.1248,-83.9784,6.54919,324479,
141,0.0107,0.0143,0.0143,0.0107,0.0539,0.0537,0.057,0.0573,109,142,173,140,0,1.12138,-78.2931,5.77121,322916,
142,0.0107,0.0143,0.0143,0.0107,0.0505,0.0503,0.0537,0.0539,110,143,174,141,0,1.1219,-81.1923,6.54255,323049,
143,0.0107,0.0143,0.0143,0.0107,0.0472,0.0469,0.0503,0.0505,111,144,175,142,0,1.12388,-84.737,6.5669,323839,
144,0.0107,0.0143,0.0143,0.0107,0.0438,0.0436,0.0469,0.0472,112,145,176,143,0,1.12121,-78.1057,5.92321,322716,
145,0.0107,0.0143,0.0143,0.0107,0.0404,0.0402,0.0436,0.0438,113,146,177,144,0,1.12191,-79.4946,6.76249,323019,
146,0.0107,0.0143,0.0143,0.0107,0.037,0.0369,0.0402,0.0404,114,147,178,145,0,1.12319,-78.7321,7.13253,323591,
147,0.0107,0.0143,0.0143,0.0107,0.0337,0.0335,0.0369,0.037,115,148,179,146,0,1.12571,-83.9013,6.89782,324631,
148,0.0107,0.0143,0.0143,0.0107,0.0303,0.0302,0.0335,0.0337,116,149,180,147,0,1.12339,-79.0253,6.36758,323508,
149,0.0107,0.0143,0.0143,0.0107,0.0269,0.0268,0.0302,0.0303,117,150,181,148,0,1.12238,-80.5295,7.3949,322934,
150,0.0107,0.0143,0.0143,0.0107,0.0236,0.0235,0.0268,0.0269,118,151,182,149,0,1.12535,-81.2213,7.81516,324327,
151,0.0107,0.0143,0.0143,0.0107,0.0202,0.0201,0.0235,0.0236,119,152,183,150,0,1.12502,-80.7027,7.43778,324109,
152,0.0107,0.0143,0.0143,0.0107,0.0168,0.0168,0.0201,0.0202,120,153,184,151,0,1.1238,-77.1482,7.8325,323515,
153,0.0107,0.0143,0.0143,0.0107,0.0135,0.0134,0.0168,0.0168,121,154,185,152,0,1.12662,-81.8059,8.03484,324660,
154,0.0107,0.0143,0.0143,0.0107,0.0101,0.0101,0.0134,0.0135,122,155,186,153,0,1.12478,-77.3524,7.74162,323738,
155,0.0107,0.0143,0.0143,0.0107,0.0067,0.0067,0.0101,0.0101,123,156,187,154,0,1.12416,-79.3779,8.47132,323310,
156,0.0107,0.0143,0.0143,0.0107,0.0034,0.0034,0.0067,0.0067,124,157,188,155,0,1.12734,-80.0193,8.32361,324750,
157,0.0107,0.0143,0.0143,0.0107,0,0,0.0034,0.0034,125,158,189,156,0,1.12461,-78.2646,8.11023,323442,
158,0.0107,0.0143,0.0143,0.0107,-0.0034,-0.0034,0,0,126,-2,190,157,1,1.12461,-78.136,9.26762,323442,
159,0.0143,0.0178,0.0178,0.0143,0.1006,0.1001,0.1035,0.104,127,160,191,-2,1,1.11431,-79.5818,8.51228,324026,
160,0.0143,0.0178,0.0178,0.0143,0.0972,0.0968,0.1001,0.1006,128,161,192,159,0,1.11431,-79.5093,9.16451,324026,
161,0.0143,0.0178,0.0178,0.0143,0.0939,0.0935,0.0968,0.0972,129,162,193,160,0,1.11877,-83.4473,9.20079,326039,
162,0.0143,0.0178,0.0178,0.0143,0.0905,0.0901,0.0935,0.0939,130,163,194,161,0,1.11648,-82.7088,8.65177,324871,
163,0.0143,0.0178,0.0178,0.0143,0.0872,0.0868,0.0901,0.0905,131,164,195,162,0,1.11792,-82.8083,8.6791,325463,
164,0.0143,0.0178,0.0178,0.0143,0.0838,0.0835,0.0868,0.0872,132,165,196,163,0,1.11701,-80.1259,8.30726,324974,
165,0.0143,0.0178,0.0178,0.0143,0.0805,0.0801,0.0835,0.0838,133,166,197,164,0,1.12076,-85.4641,8.41122,326492,
166,0.0143,0.0178,0.0178,0.0143,0.0771,0.0768,0.0801,0.0805,134,167,198,165,0,1.11695,-79.9439,7.59375,324657,
167,0.0143,0.0178,0.0178,0.0143,0.0738,0.0734,0.0768,0.0771,135,168,199,166,0,1.12029,-84.2108,8.12461,326143,
168,0.0143,0.0178,0.0178,0.0143,0.0704,0.0701,0.0734,0.0738,136,169,200,167,0,1.11838,-79.3242,7.31541,325259,
169,0.0143,0.0178,0.0178,0.0143,0.0671,0.0668,0.0701,0.0704,137,170,201,168,0,1.1207,-82.7248,7.24492,326190,
170,0.0143,0.0178,0.0178,0.0143,0.0637,0.0634,0.0668,0.0671,138,171,202,169,0,1.1198,-82.7529,6.97156,325663,
171,0.0143,0.0178,0.0178,0.0143,0.0604,0.0601,0.0634,0.0637,139,172,203,170,0,1.12074,-82.0063,6.93935,326061,
172,0.0143,0.0178,0.0178,0.0143,0.057,0.0567,0.0601,0.0604,140,173,204,171,0,1.11829,-81.0714,7.30181,324839,
173,0.0143,0.0178,0.0178,0.0143,0.0537,0.0534,0.0567,0.057,141,174,205,172,0,1.12112,-81.1767,7.34515,326211,
174,0.0143,0.0178,0.0178,0.0143,0.0503,0.0501,0.0534,0.0537,142,175,206,173,0,1.11972,-78.7171,6.51085,325510,
175,0.0143,0.0178,0.0178,0.0143,0.0469,0.0467,0.0501,0.0503,143,176,207,174,0,1.1185,-80.9063,7.42036,324853,
176,0.0143,0.0178,0.0178,0.0143,0.0436,0.0434,0.0467,0.0469,144,177,208,175,0,1.12165,-81.001,7.61367,326348,
177,0.0143,0.0178,0.0178,0.0143,0.0402,0.0401,0.0434,0.0436,145,178,209,176,0,1.12027,-78.1628,7.14928,325646,
178,0.0143,0.0178,0.0178,0.0143,0.0369,0.0367,0.0401,0.0402,146,179,210,177,0,1.12282,-83.5408,7.30447,326629,
179,0.0143,0.0178,0.0178,0.0143,0.0335,0.0334,0.0367,0.0369,147,180,211,178,0,1.1206,-79.5757,7.25206,325489,
180,0.0143,0.0178,0.0178,0.0143,0.0302,0.03,0.0334,0.0335,148,181,212,179,0,1.12306,-83.6136,7.67835,326576,
181,0.0143,0.0178,0.0178,0.0143,0.0268,0.0267,0.03,0.0302,149,182,213,180,0,1.12072,-78.3074,7.78309,325507,
182,0.0143,0.0178,0.0178,0.0143,0.0235,0.0234,0.0267,0.0268,150,183,214,181,0,1.12291,-81.0195,8.3167,326373,
183,0.0143,0.0178,0.0178,0.0143,0.0201,0.02,0.0234,0.0235,151,184,215,182,0,1.12299,-80.9998,8.33138,326303,
184,0.0143,0.0178,0.0178,0.0143,0.0168,0.0167,0.02,0.0201,152,185,216,183,0,1.12387,-79.8224,8.15537,326682,
185,0.0143,0.0178,0.0178,0.0143,0.0134,0.0134,0.0167,0.0168,153,186,217,184,0,1.12118,-76.9126,8.24428,325361,
186,0.0143,0.0178,0.0178,0.0143,0.0101,0.01,0.0134,0.0134,154,187,218,185,0,1.12424,-82.0896,8.54287,326686,
187,0.0143,0.0178,0.0178,0.0143,0.0067,0.0067,0.01,0.0101,155,188,219,186,0,1.12248,-77.9503,8.48217,325853,
188,0.0143,0.0178,0.0178,0.0143,0.0034,0.0033,0.0067,0.0067,156,189,220,187,0,1.1236,-81.8967,8.64719,326284,
189,0.0143,0.0178,0.0178,0.0143,0,0,0.0033,0.0034,157,190,221,188,0,1.12157,-75.5492,8.38563,325466,
190,0.0143,0.0178,0.0178,0.0143,-0.0034,-0.0033,0,0,158,-2,222,189,1,1.12157,-75.5473,8.40287,325466,
191,0.0178,0.0214,0.0214,0.0178,0.1001,0.0997,0.103,0.1035,159,192,223,-2,1,1.11648,-84.1584,9.55907,327606,
192,0.0178,0.0214,0.0214,0.0178,0.0968,0.0964,0.0997,0.1001,160,193,224,191,0,1.11648,-84.2041,9.14788,327606,
193,0.0178,0.0214,0.0214,0.0178,0.0935,0.093,0.0964,0.0968,161,194,225,192,0,1.11633,-86.3006,9.22347,327431,
194,0.0178,0.0214,0.0214,0.0178,0.0901,0.0897,0.093,0.0935,162,195,226,193,0,1.11451,-80.7498,8.67237,326650,
195,0.0178,0.0214,0.0214,0.0178,0.0868,0.0864,0.0897,0.0901,163,196,227,194,0,1.11684,-83.4359,9.02294,327620,
196,0.0178,0.0214,0.0214,0.0178,0.0835,0.0831,0.0864,0.0868,164,197,228,195,0,1.11749,-83.3846,8.22043,327824,
197,0.0178,0.0214,0.0214,0.0178,0.0801,0.0797,0.0831,0.0835,165,198,229,196,0,1.11521,-82.58,8.3278,326605,
198,0.0178,0.0214,0.0214,0.0178,0.0768,0.0764,0.0797,0.0801,166,199,230,197,0,1.11761,-82.3107,8.42995,327720,
199,0.0178,0.0214,0.0214,0.0178,0.0734,0.0731,0.0764,0.0768,167,200,231,198,0,1.11594,-79.2564,8.19682,326831,
200,0.0178,0.0214,0.0214,0.0178,0.0701,0.0698,0.0731,0.0734,168,201,232,199,0,1.11966,-82.6349,8.29143,328464,
201,0.0178,0.0214,0.0214,0.0178,0.0668,0.0665,0.0698,0.0701,169,202,233,200,0,1.11963,-83.7784,7.35738,328289,
202,0.0178,0.0214,0.0214,0.0178,0.0634,0.0631,0.0665,0.0668,170,203,234,201,0,1.1171,-82.1099,7.45128,327085,
203,0.0178,0.0214,0.0214,0.0178,0.0601,0.0598,0.0631,0.0634,171,204,235,202,0,1.1182,-81.5263,7.92604,327597,
204,0.0178,0.0214,0.0214,0.0178,0.0567,0.0565,0.0598,0.0601,172,205,236,203,0,1.11686,-78.3933,7.97964,327009,
205,0.0178,0.0214,0.0214,0.0178,0.0534,0.0532,0.0565,0.0567,173,206,237,204,0,1.11956,-82.1346,8.30018,328150,
206,0.0178,0.0214,0.0214,0.0178,0.0501,0.0498,0.0532,0.0534,174,207,238,205,0,1.12055,-84.4422,7.76506,328519,
207,0.0178,0.0214,0.0214,0.0178,0.0467,0.0465,0.0498,0.0501,175,208,239,206,0,1.11807,-78.9911,7.75527,327381,
208,0.0178,0.0214,0.0214,0.0178,0.0434,0.0432,0.0465,0.0467,176,209,240,207,0,1.12063,-81.6053,8.24462,328444,
209,0.0178,0.0214,0.0214,0.0178,0.0401,0.0399,0.0432,0.0434,177,210,241,208,0,1.1213,-81.2854,7.22215,328674,
210,0.0178,0.0214,0.0214,0.0178,0.0367,0.0366,0.0399,0.0401,178,211,242,209,0,1.11824,-78.4956,7.07464,327117,
211,0.0178,0.0214,0.0214,0.0178,0.0334,0.0332,0.0366,0.0367,179,212,243,210,0,1.12079,-83.365,7.8091,328191,
212,0.0178,0.0214,0.0214,0.0178,0.03,0.0299,0.0332,0.0334,180,213,244,211,0,1.11845,-78.3969,8.1431,327061,
213,0.0178,0.0214,0.0214,0.0178,0.0267,0.0266,0.0299,0.03,181,214,245,212,0,1.12182,-80.9829,8.48464,328554,
214,0.0178,0.0214,0.0214,0.0178,0.0234,0.0233,0.0266,0.0267,182,215,246,213,0,1.12146,-81.3659,8.11279,328211,
215,0.0178,0.0214,0.0214,0.0178,0.02,0.0199,0.0233,0.0234,183,216,247,214,0,1.12082,-80.6282,8.66464,327784,
216,0.0178,0.0214,0.0214,0.0178,0.0167,0.0166,0.0199,0.02,184,217,248,215,0,1.12168,-80.3403,9.15983,328175,
217,0.0178,0.0214,0.0214,0.0178,0.0134,0.0133,0.0166,0.0167,185,218,249,216,0,1.12241,-79.8843,8.5668,328546,
218,0.0178,0.0214,0.0214,0.0178,0.01,0.01,0.0133,0.0134,186,219,250,217,0,1.11958,-77.0427,8.54674,327158,
219,0.0178,0.0214,0.0214,0.0178,0.0067,0.0066,0.01,0.01,187,220,251,218,0,1.12229,-81.8537,9.04485,328351,
220,0.0178,0.0214,0.0214,0.0178,0.0033,0.0033,0.0066,0.0067,188,221,252,219,0,1.11994,-77.0791,9.47199,327296,
221,0.0178,0.0214,0.0214,0.0178,0,0,0.0033,0.0033,189,222,253,220,0,1.12375,-79.5829,9.49416,329102,
222,0.0178,0.0214,0.0214,0.0178,-0.0033,-0.0033,0,0,190,-2,254,221,1,1.12375,-79.7259,8.20681,329102,
223,0.0214,0.025,0.025,0.0214,0.0997,0.0992,0.1025,0.103,191,224,255,-2,1,1.1131,-82.7682,9.42417,328164,
224,0.0214,0.025,0.025,0.0214,0.0964,0.0959,0.0992,0.0997,192,225,256,223,0,1.1131,-82.8182,8.97431,328164,
225,0.0214,0.025,0.025,0.0214,0.093,0.0926,0.0959,0.0964,193,226,257,224,0,1.11246,-80.6323,9.07936,327842,
226,0.0214,0.025,0.025,0.0214,0.0897,0.0893,0.0926,0.093,194,227,258,225,0,1.1165,-83.7242,9.34858,329659,
227,0.0214,0.025,0.025,0.0214,0.0864,0.086,0.0893,0.0897,195,228,259,226,0,1.11611,-84.1287,8.80276,329325,
228,0.0214,0.025,0.025,0.0214,0.0831,0.0827,0.086,0.0864,196,229,260,227,0,1.11632,-83.4199,8.52158,329348,
229,0.0214,0.025,0.025,0.0214,0.0797,0.0794,0.0827,0.0831,197,230,261,228,0,1.11509,-80.0924,8.36485,328779,
230,0.0214,0.025,0.025,0.0214,0.0764,0.0761,0.0794,0.0797,198,231,262,229,0,1.11739,-82.8515,8.81046,329692,
231,0.0214,0.025,0.025,0.0214,0.0731,0.0728,0.0761,0.0764,199,232,263,230,0,1.11813,-83.1541,8.40321,329926,
232,0.0214,0.025,0.025,0.0214,0.0698,0.0695,0.0728,0.0731,200,233,264,231,0,1.11792,-83.8843,8.07875,329675,
233,0.0214,0.025,0.025,0.0214,0.0665,0.0661,0.0695,0.0698,201,234,265,232,0,1.11735,-85.7123,8.25728,329324,
234,0.0214,0.025,0.025,0.0214,0.0631,0.0628,0.0661,0.0665,202,235,266,233,0,1.11568,-79.658,8.31826,328667,
235,0.0214,0.025,0.025,0.0214,0.0598,0.0595,0.0628,0.0631,203,236,267,234,0,1.11766,-81.8495,9.00829,329541,
236,0.0214,0.025,0.025,0.0214,0.0565,0.0562,0.0595,0.0598,204,237,268,235,0,1.11842,-81.8875,8.60765,329888,
237,0.0214,0.025,0.025,0.0214,0.0532,0.0529,0.0562,0.0565,205,238,269,236,0,1.11858,-82.1246,7.97415,329811,
238,0.0214,0.025,0.025,0.0214,0.0498,0.0496,0.0529,0.0532,206,239,270,237,0,1.1167,-78.7386,7.97172,328818,
239,0.0214,0.025,0.025,0.0214,0.0465,0.0463,0.0496,0.0498,207,240,271,238,0,1.11992,-81.4363,8.5704,330219,
240,0.0214,0.025,0.025,0.0214,0.0432,0.043,0.0463,0.0465,208,241,272,239,0,1.12016,-82.4191,8.39166,330173,
241,0.0214,0.025,0.025,0.0214,0.0399,0.0397,0.043,0.0432,209,242,273,240,0,1.12066,-82.3976,8.02121,330317,
242,0.0214,0.025,0.025,0.0214,0.0366,0.0364,0.0397,0.0399,210,243,274,241,0,1.12068,-81.2689,7.46102,330296,
243,0.0214,0.025,0.025,0.0214,0.0332,0.0331,0.0364,0.0366,211,244,275,242,0,1.11783,-77.8845,7.92533,328903,
244,0.0214,0.025,0.025,0.0214,0.0299,0.0298,0.0331,0.0332,212,245,276,243,0,1.12101,-81.1267,8.54513,330321,
245,0.0214,0.025,0.025,0.0214,0.0266,0.0265,0.0298,0.0299,213,246,277,244,0,1.12062,-81.6094,8.10268,329971,
246,0.0214,0.025,0.025,0.0214,0.0233,0.0232,0.0265,0.0266,214,247,278,245,0,1.11986,-81.1468,8.00101,329536,
247,0.0214,0.025,0.025,0.0214,0.0199,0.0198,0.0232,0.0233,215,248,279,246,0,1.11798,-79.5117,8.91747,328613,
248,0.0214,0.025,0.025,0.0214,0.0166,0.0165,0.0198,0.0199,216,249,280,247,0,1.11939,-80.1398,9.88002,329286,
249,0.0214,0.025,0.025,0.0214,0.0133,0.0132,0.0165,0.0166,217,250,281,248,0,1.12119,-80.8328,9.48414,330048,
250,0.0214,0.025,0.025,0.0214,0.01,0.0099,0.0132,0.0133,218,251,282,249,0,1.12189,-79.9276,8.69257,330326,
251,0.0214,0.025,0.025,0.0214,0.0066,0.0066,0.0099,0.01,219,252,283,250,0,1.11927,-76.4428,9.07285,329026,
252,0.0214,0.025,0.025,0.0214,0.0033,0.0033,0.0066,0.0066,220,253,284,251,0,1.12257,-79.788,9.69125,330528,
253,0.0214,0.025,0.025,0.0214,0,0,0.0033,0.0033,221,254,285,252,0,1.12285,-80.6206,9.19368,330545,
254,0.0214,0.025,0.025,0.0214,-0.0033,-0.0033,0,0,222,-2,286,253,1,1.12285,-80.6724,8.72777,330545,
255,0.025,0.0286,0.0286,0.025,0.0992,0.0987,0.102,0.1025,223,256,287,-2,1,1.11663,-81.466,9.40531,331379,
256,0.025,0.0286,0.0286,0.025,0.0959,0.0955,0.0987,0.0992,224,257,288,255,0,1.11663,-81.5436,8.70688,331379,
257,0.025,0.0286,0.0286,0.025,0.0926,0.0922,0.0955,0.0959,225,258,289,256,0,1.11729,-84.0812,8.75425,331603,
258,0.025,0.0286,0.0286,0.025,0.0893,0.0889,0.0922,0.0926,226,259,290,257,0,1.11657,-84.5254,8.641,331170,
259,0.025,0.0286,0.0286,0.025,0.086,0.0856,0.0889,0.0893,227,260,291,258,0,1.11537,-84.0927,8.72457,330581,
260,0.025,0.0286,0.0286,0.025,0.0827,0.0823,0.0856,0.086,228,261,292,259,0,1.11625,-84.1688,9.15377,330925,
261,0.025,0.0286,0.0286,0.025,0.0794,0.079,0.0823,0.0827,229,262,293,260,0,1.11766,-84.0131,8.78293,331565,
262,0.025,0.0286,0.0286,0.025,0.0761,0.0757,0.079,0.0794,230,263,294,261,0,1.11655,-83.5039,8.35501,330907,
263,0.025,0.0286,0.0286,0.025,0.0728,0.0724,0.0757,0.0761,231,264,295,262,0,1.11584,-82.8998,8.42269,330519,
264,0.025,0.0286,0.0286,0.025,0.0695,0.0691,0.0724,0.0728,232,265,296,263,0,1.11637,-82.9753,8.32922,330722,
265,0.025,0.0286,0.0286,0.025,0.0661,0.0658,0.0691,0.0695,233,266,297,264,0,1.11425,-79.598,8.74581,329722,
266,0.025,0.0286,0.0286,0.025,0.0628,0.0625,0.0658,0.0661,234,267,298,265,0,1.11833,-82.2358,9.46607,331616,
267,0.025,0.0286,0.0286,0.025,0.0595,0.0592,0.0625,0.0628,235,268,299,266,0,1.11745,-81.796,9.27155,331090,
268,0.025,0.0286,0.0286,0.025,0.0562,0.056,0.0592,0.0595,236,269,300,267,0,1.11911,-80.3537,8.88965,331796,
269,0.025,0.0286,0.0286,0.025,0.0529,0.0527,0.056,0.0562,237,270,301,268,0,1.11977,-82.9441,8.34282,331922,
270,0.025,0.0286,0.0286,0.025,0.0496,0.0494,0.0527,0.0529,238,271,302,269,0,1.11997,-82.4289,8.01166,331913,
271,0.025,0.0286,0.0286,0.025,0.0463,0.0461,0.0494,0.0496,239,272,303,270,0,1.11876,-81.736,8.08839,331204,
272,0.025,0.0286,0.0286,0.025,0.043,0.0428,0.0461,0.0463,240,273,304,271,0,1.11919,-82.3928,8.50474,331270,
273,0.025,0.0286,0.0286,0.025,0.0397,0.0395,0.0428,0.043,241,274,305,272,0,1.1199,-82.7048,8.53515,331519,
274,0.025,0.0286,0.0286,0.025,0.0364,0.0362,0.0395,0.0397,242,275,306,273,0,1.11988,-81.8621,8.44614,331441,
275,0.025,0.0286,0.0286,0.025,0.0331,0.0329,0.0362,0.0364,243,276,307,274,0,1.12015,-81.1922,8.50203,331586,
276,0.025,0.0286,0.0286,0.025,0.0298,0.0296,0.0329,0.0331,244,277,308,275,0,1.12048,-81.7634,8.43807,331597,
277,0.025,0.0286,0.0286,0.025,0.0265,0.0263,0.0296,0.0298,245,278,309,276,0,1.11998,-81.5713,8.49237,331284,
278,0.025,0.0286,0.0286,0.025,0.0232,0.023,0.0263,0.0265,246,279,310,277,0,1.11978,-80.4123,8.68663,331207,
279,0.025,0.0286,0.0286,0.025,0.0198,0.0197,0.023,0.0232,247,280,311,278,0,1.1177,-75.6908,9.39972,330300,
280,0.025,0.0286,0.0286,0.025,0.0165,0.0165,0.0197,0.0198,248,281,312,279,0,1.12084,-77.7233,9.80644,331711,
281,0.025,0.0286,0.0286,0.025,0.0132,0.0132,0.0165,0.0165,249,282,313,280,0,1.12159,-81.0472,9.06203,331831,
282,0.025,0.0286,0.0286,0.025,0.0099,0.0099,0.0132,0.0132,250,283,314,281,0,1.12161,-80.6686,8.80582,331714,
283,0.025,0.0286,0.0286,0.025,0.0066,0.0066,0.0099,0.0099,251,284,315,282,0,1.12157,-79.7302,8.83689,331671,
284,0.025,0.0286,0.0286,0.025,0.0033,0.0033,0.0066,0.0066,252,285,316,283,0,1.12183,-80.3417,8.91872,331650,
285,0.025,0.0286,0.0286,0.025,0,0,0.0033,0.0033,253,286,317,284,0,1.12198,-80.8599,8.93586,331635,
286,0.025,0.0286,0.0286,0.025,-0.0033,-0.0033,0,0,254,-2,318,285,1,1.12198,-80.8492,9.03181,331635,
287,0.0286,0.0321,0.0321,0.0286,0.0987,0.0983,0.1015,0.102,255,288,319,-2,1,1.11893,-89.0318,10.2428,333291,
288,0.0286,0.0321,0.0321,0.0286,0.0955,0.095,0.0983,0.0987,256,289,320,287,0,1.11893,-89.1087,9.55057,333291,