'cellnumber','cornerlocs_x','cornerlocs_y','adjacent_cells','edge_state','initial_conditions'
1,-0.00335,-1e-05,-1e-05,-0.00335,0.09926,0.09889,0.1023,0.10268,-2,2,32,-2,3,1,1,0,210000,
2,-0.00335,-1e-05,-1e-05,-0.00335,0.09584,0.09548,0.09889,0.09926,-2,3,33,1,3,1,1,0,210000,
3,-0.00335,-1e-05,-1e-05,-0.00335,0.09241,0.09207,0.09548,0.09584,-2,4,34,2,3,1,1,0,210000,
4,-0.00335,-1e-05,-1e-05,-0.00335,0.08899,0.08866,0.09207,0.09241,-2,5,35,3,3,1,1,0,210000,
5,-0.00335,-1e-05,-1e-05,-0.00335,0.08557,0.08525,0.08866,0.08899,-2,6,36,4,3,1,1,0,210000,
6,-0.00335,-1e-05,-1e-05,-0.00335,0.08214,0.08184,0.08525,0.08557,-2,7,37,5,3,1,1,0,210000,
7,-0.00335,-1e-05,-1e-05,-0.00335,0.07872,0.07843,0.08184,0.08214,-2,8,38,6,3,1,1,0,210000,
8,-0.00335,-1e-05,-1e-05,-0.00335,0.0753,0.07502,0.07843,0.07872,-2,9,39,7,3,1,1,0,210000,
9,-0.00335,-1e-05,-1e-05,-0.00335,0.07188,0.07161,0.07502,0.0753,-2,10,40,8,3,1,1,0,210000,
10,-0.00335,-1e-05,-1e-05,-0.00335,0.06845,0.0682,0.07161,0.07188,-2,11,41,9,3,1,1,0,210000,
11,-0.00335,-1e-05,-1e-05,-0.00335,0.06503,0.06479,0.0682,0.06845,-2,12,42,10,3,1,1,0,210000,
12,-0.00335,-1e-05,-1e-05,-0.00335,0.06161,0.06138,0.06479,0.06503,-2,13,43,11,3,1,1,0,210000,
13,-0.00335,-1e-05,-1e-05,-0.00335,0.05819,0.05797,0.06138,0.06161,-2,14,44,12,3,1,1,0,210000,
14,-0.00335,-1e-05,-1e-05,-0.00335,0.05476,0.05456,0.05797,0.05819,-2,15,45,13,3,1,1,0,210000,
15,-0.00335,-1e-05,-1e-05,-0.00335,0.05134,0.05115,0.05456,0.05476,-2,16,46,14,3,1,1,0,210000,
16,-0.00335,-1e-05,-1e-05,-0.00335,0.04792,0.04774,0.05115,0.05134,-2,17,47,15,3,1,1,0,210000,
17,-0.00335,-1e-05,-1e-05,-0.00335,0.0445,0.04433,0.04774,0.04792,-2,18,48,16,3,1,1,0,210000,
18,-0.00335,-1e-05,-1e-05,-0.00335,0.04107,0.04092,0.04433,0.0445,-2,19,49,17,3,1,1,0,210000,
19,-0.00335,-1e-05,-1e-05,-0.00335,0.03765,0.03751,0.04092,0.04107,-2,20,50,18,3,1,1,0,210000,
20,-0.00335,-1e-05,-1e-05,-0.00335,0.03423,0.0341,0.03751,0.03765,-2,21,51,19,3,1,1,0,210000,
21,-0.00335,-1e-05,-1e-05,-0.00335,0.0308,0.03069,0.0341,0.03423,-2,22,52,20,3,1,1,0,210000,
22,-0.00335,-1e-05,-1e-05,-0.00335,0.02738,0.02728,0.03069,0.0308,-2,23,53,21,3,1,1,0,210000,
23,-0.00335,-1e-05,-1e-05,-0.00335,0.02396,0.02387,0.02728,0.02738,-2,24,54,22,3,1,1,0,210000,
24,-0.00335,-1e-05,-1e-05,-0.00335,0.02054,0.02046,0.02387,0.02396,-2,25,55,23,3,1,1,0,210000,
25,-0.00335,-1e-05,-1e-05,-0.00335,0.01711,0.01705,0.02046,0.02054,-2,26,56,24,3,1,1,0,210000,
26,-0.00335,-1e-05,-1e-05,-0.00335,0.01369,0.01364,0.01705,0.01711,-2,27,57,25,3,1,1,0,210000,
27,-0.00335,-1e-05,-1e-05,-0.00335,0.01027,0.01023,0.01364,0.01369,-2,28,58,26,3,1,1,0,210000,
28,-0.00335,-1e-05,-1e-05,-0.00335,0.00685,0.00682,0.01023,0.01027,-2,29,59,27,3,1,1,0,210000,
29,-0.00335,-1e-05,-1e-05,-0.00335,0.00342,0.00341,0.00682,0.00685,-2,30,60,28,3,1,1,0,210000,
30,-0.00335,-1e-05,-1e-05,-0.00335,0,0,0.00341,0.00342,-2,-2,61,29,3,1,1,0,210000,
31,-1e-05,0.00332,0.00332,-1e-05,0.1023,0.10192,0.10532,0.10571,-2,32,63,-2,1,0.972285,2.74482,0.010412,208483,
32,-1e-05,0.00332,0.00332,-1e-05,0.09889,0.09852,0.10192,0.1023,1,33,64,31,0,0.972285,2.74482,-0.010412,208483,
33,-1e-05,0.00332,0.00332,-1e-05,0.09548,0.09513,0.09852,0.09889,2,34,65,32,0,0.981055,2.73207,0.003612,208465,
34,-1e-05,0.00332,0.00332,-1e-05,0.09207,0.09173,0.09513,0.09548,3,35,66,33,0,0.972968,2.739,0.0194303,208479,
35,-1e-05,0.00332,0.00332,-1e-05,0.08866,0.08833,0.09173,0.09207,4,36,67,34,0,0.946692,2.64162,0.0423752,208459,
36,-1e-05,0.00332,0.00332,-1e-05,0.08525,0.08494,0.08833,0.08866,5,37,68,35,0,0.98382,2.74932,0.0818374,208459,
37,-1e-05,0.00332,0.00332,-1e-05,0.08184,0.08154,0.08494,0.08525,6,38,69,36,0,0.958675,2.72824,0.081308,208488,
38,-1e-05,0.00332,0.00332,-1e-05,0.07843,0.07814,0.08154,0.08184,7,39,70,37,0,0.992229,2.80745,0.0850745,208467,
39,-1e-05,0.00332,0.00332,-1e-05,0.07502,0.07474,0.07814,0.07843,8,40,71,38,0,0.956521,2.71736,0.0841823,208489,
40,-1e-05,0.00332,0.00332,-1e-05,0.07161,0.07135,0.07474,0.07502,9,41,72,39,0,0.978622,2.71518,0.0761717,208463,
41,-1e-05,0.00332,0.00332,-1e-05,0.0682,0.06795,0.07135,0.07161,10,42,73,40,0,0.997632,2.85238,0.104856,208454,
42,-1e-05,0.00332,0.00332,-1e-05,0.06479,0.06455,0.06795,0.0682,11,43,74,41,0,0.957618,2.71837,0.108835,208473,
43,-1e-05,0.00332,0.00332,-1e-05,0.06138,0.06115,0.06455,0.06479,12,44,75,42,0,0.985181,2.76614,0.0909939,208463,
44,-1e-05,0.00332,0.00332,-1e-05,0.05797,0.05776,0.06115,0.06138,13,45,76,43,0,0.955827,2.70453,0.0693849,208474,
45,-1e-05,0.00332,0.00332,-1e-05,0.05456,0.05436,0.05776,0.05797,14,46,77,44,0,0.958056,2.72835,0.0212479,208467,
46,-1e-05,0.00332,0.00332,-1e-05,0.05115,0.05096,0.05436,0.05456,15,47,78,45,0,0.901468,2.51239,0.0200823,208448,
47,-1e-05,0.00332,0.00332,-1e-05,0.04774,0.04756,0.05096,0.05115,16,48,79,46,0,0.956139,2.66873,0.0496569,208459,
48,-1e-05,0.00332,0.00332,-1e-05,0.04433,0.04417,0.04756,0.04774,17,49,80,47,0,0.956811,2.72354,0.0548439,208469,
49,-1e-05,0.00332,0.00332,-1e-05,0.04092,0.04077,0.04417,0.04433,18,50,81,48,0,0.956471,2.72376,0.00890853,208478,
50,-1e-05,0.00332,0.00332,-1e-05,0.03751,0.03737,0.04077,0.04092,19,51,82,49,0,0.988547,2.77647,-0.0127939,208466,
51,-1e-05,0.00332,0.00332,-1e-05,0.0341,0.03397,0.03737,0.03751,20,52,83,50,0,0.957036,2.72623,-0.0330244,208482,
52,-1e-05,0.00332,0.00332,-1e-05,0.03069,0.03058,0.03397,0.0341,21,53,84,51,0,0.988297,2.76647,-0.0373355,208457,
53,-1e-05,0.00332,0.00332,-1e-05,0.02728,0.02718,0.03058,0.03069,22,54,85,52,0,0.962794,2.73154,-0.0356105,208475,
54,-1e-05,0.00332,0.00332,-1e-05,0.02387,0.02378,0.02718,0.02728,23,55,86,53,0,0.982937,2.74648,-0.0259882,208454,
55,-1e-05,0.00332,0.00332,-1e-05,0.02046,0.02038,0.02378,0.02387,24,56,87,54,0,0.963372,2.76975,-0.0130194,208472,
56,-1e-05,0.00332,0.00332,-1e-05,0.01705,0.01699,0.02038,0.02046,25,57,88,55,0,0.957366,2.72931,-0.06073,208482,
57,-1e-05,0.00332,0.00332,-1e-05,0.01364,0.01359,0.01699,0.01705,26,58,89,56,0,0.872528,2.4357,-0.0544837,208451,
58,-1e-05,0.00332,0.00332,-1e-05,0.01023,0.01019,0.01359,0.01364,27,59,90,57,0,0.956303,2.70397,-0.0431318,208467,
59,-1e-05,0.00332,0.00332,-1e-05,0.00682,0.00679,0.01019,0.01023,28,60,91,58,0,0.986584,2.74489,-0.0281444,208453,
60,-1e-05,0.00332,0.00332,-1e-05,0.00341,0.0034,0.00679,0.00682,29,61,92,59,0,0.989502,2.76043,0.0019107,208455,
61,-1e-05,0.00332,0.00332,-1e-05,0,0,0.0034,0.00341,30,62,93,60,0,0.970326,2.75178,0.00827113,208469,
62,-1e-05,0.00332,0.00332,-1e-05,-0.00341,-0.0034,0,0,-2,-2,94,61,1,0.970326,2.75178,-0.00827113,208469,
63,0.00332,0.00665,0.00665,0.00332,0.10192,0.10153,0.10492,0.10532,31,64,95,-2,1,0.94801,2.68794,0.00240543,208468,
64,0.00332,0.00665,0.00665,0.00332,0.09852,0.09815,0.10153,0.10192,32,65,96,63,0,0.94801,2.68794,-0.00240543,208468,
65,0.00332,0.00665,0.00665,0.00332,0.09513,0.09476,0.09815,0.09852,33,66,97,64,0,1.00756,2.79816,0.00433321,208463,
66,0.00332,0.00665,0.00665,0.00332,0.09173,0.09138,0.09476,0.09513,34,67,98,65,0,0.951894,2.67884,0.0130076,208463,
67,0.00332,0.00665,0.00665,0.00332,0.08833,0.08799,0.09138,0.09173,35,68,99,66,0,1.03519,2.89055,0.0198232,208456,
68,0.00332,0.00665,0.00665,0.00332,0.08494,0.08461,0.08799,0.08833,36,69,100,67,0,1.00591,2.80838,0.0261308,208451,
69,0.00332,0.00665,0.00665,0.00332,0.08154,0.08122,0.08461,0.08494,37,70,101,68,0,0.945505,2.70116,0.0335433,208465,
70,0.00332,0.00665,0.00665,0.00332,0.07814,0.07784,0.08122,0.08154,38,71,102,69,0,0.925046,2.66508,0.0181607,208480,
71,0.00332,0.00665,0.00665,0.00332,0.07474,0.07446,0.07784,0.07814,39,72,103,70,0,0.95203,2.71174,0.00768175,208460,
72,0.00332,0.00665,0.00665,0.00332,0.07135,0.07107,0.07446,0.07474,40,73,104,71,0,1.01866,2.81174,-6.15842e-05,208461,
73,0.00332,0.00665,0.00665,0.00332,0.06795,0.06769,0.07107,0.07135,41,74,105,72,0,0.93853,2.7187,0.0186987,208442,
74,0.00332,0.00665,0.00665,0.00332,0.06455,0.0643,0.06769,0.06795,42,75,106,73,0,0.952656,2.71837,0.0423015,208453,
75,0.00332,0.00665,0.00665,0.00332,0.06115,0.06092,0.0643,0.06455,43,76,107,74,0,0.94503,2.65304,0.0361464,208450,
76,0.00332,0.00665,0.00665,0.00332,0.05776,0.05753,0.06092,0.06115,44,77,108,75,0,0.952689,2.69987,0.03393,208446,
77,0.00332,0.00665,0.00665,0.00332,0.05436,0.05415,0.05753,0.05776,45,78,109,76,0,0.951735,2.73273,0.0288026,208452,
78,0.00332,0.00665,0.00665,0.00332,0.05096,0.05077,0.05415,0.05436,46,79,110,77,0,1.11277,3.09122,0.0303035,208456,
79,0.00332,0.00665,0.00665,0.00332,0.04756,0.04738,0.05077,0.05096,47,80,111,78,0,1.06028,2.95493,0.0258773,208455,
80,0.00332,0.00665,0.00665,0.00332,0.04417,0.044,0.04738,0.04756,48,81,112,79,0,0.952538,2.72519,0.0244965,208447,
81,0.00332,0.00665,0.00665,0.00332,0.04077,0.04061,0.044,0.04417,49,82,113,80,0,0.947323,2.70877,0.0266254,208454,
82,0.00332,0.00665,0.00665,0.00332,0.03737,0.03723,0.04061,0.04077,50,83,114,81,0,0.949367,2.66708,0.0215193,208453,
83,0.00332,0.00665,0.00665,0.00332,0.03397,0.03384,0.03723,0.03737,51,84,115,82,0,0.950691,2.71766,0.0140554,208458,
84,0.00332,0.00665,0.00665,0.00332,0.03058,0.03046,0.03384,0.03397,52,85,116,83,0,1.00081,2.79414,0.0169403,208450,
85,0.00332,0.00665,0.00665,0.00332,0.02718,0.02707,0.03046,0.03058,53,86,117,84,0,0.95113,2.7109,0.0122545,208453,
86,0.00332,0.00665,0.00665,0.00332,0.02378,0.02369,0.02707,0.02718,54,87,118,85,0,1.00961,2.80776,0.0156039,208446,
87,0.00332,0.00665,0.00665,0.00332,0.02038,0.02031,0.02369,0.02378,55,88,119,86,0,0.94914,2.76087,0.0300134,208445,
88,0.00332,0.00665,0.00665,0.00332,0.01699,0.01692,0.02031,0.02038,56,89,120,87,0,0.95079,2.72507,0.0346784,208456,
89,0.00332,0.00665,0.00665,0.00332,0.01359,0.01354,0.01692,0.01699,57,90,121,88,0,1.23986,3.44659,0.0353063,208445,
90,0.00332,0.00665,0.00665,0.00332,0.01019,0.01015,0.01354,0.01359,58,91,122,89,0,0.955932,2.70986,0.0258674,208446,
91,0.00332,0.00665,0.00665,0.00332,0.00679,0.00677,0.01015,0.01019,59,92,123,90,0,1.002,2.77881,0.0221622,208451,
92,0.00332,0.00665,0.00665,0.00332,0.0034,0.00338,0.00677,0.00679,60,93,124,91,0,0.999339,2.7746,0.0216065,208447,
93,0.00332,0.00665,0.00665,0.00332,0,0,0.00338,0.0034,61,94,125,92,0,0.931514,2.68083,0.0110995,208455,
94,0.00332,0.00665,0.00665,0.00332,-0.0034,-0.00338,0,0,62,-2,126,93,1,0.931514,2.68083,-0.0110995,208455,
95,0.00665,0.00999,0.00999,0.00665,0.10153,0.10113,0.1045,0.10492,63,96,127,-2,1,0.96858,2.73973,0.00526906,208463,
96,0.00665,0.00999,0.00999,0.00665,0.09815,0.09776,0.10113,0.10153,64,97,128,95,0,0.96858,2.73973,-0.00526906,208463,
97,0.00665,0.00999,0.00999,0.00665,0.09476,0.09439,0.09776,0.09815,65,98,129,96,0,0.986928,2.71897,0.00244676,208453,
98,0.00665,0.00999,0.00999,0.00665,0.09138,0.09102,0.09439,0.09476,66,99,130,97,0,0.969144,2.71072,0.00975044,208460,
99,0.00665,0.00999,0.00999,0.00665,0.08799,0.08765,0.09102,0.09138,67,100,131,98,0,0.937831,2.61544,0.0123322,208451,
100,0.00665,0.00999,0.00999,0.00665,0.08461,0.08427,0.08765,0.08799,68,101,132,99,0,0.970114,2.70897,0.0150708,208451,
101,0.00665,0.00999,0.00999,0.00665,0.08122,0.0809,0.08427,0.08461,69,102,133,100,0,0.968084,2.75329,0.00816947,208458,
102,0.00665,0.00999,0.00999,0.00665,0.07784,0.07753,0.0809,0.08122,70,103,134,101,0,0.924625,2.68492,0.0181199,208448,
103,0.00665,0.00999,0.00999,0.00665,0.07446,0.07416,0.07753,0.07784,71,104,135,102,0,0.968518,2.74694,0.0295341,208454,
104,0.00665,0.00999,0.00999,0.00665,0.07107,0.07079,0.07416,0.07446,72,105,136,103,0,0.959713,2.63613,0.0121935,208457,
105,0.00665,0.00999,0.00999,0.00665,0.06769,0.06742,0.07079,0.07107,73,106,137,104,0,1.08301,3.16765,0.0319446,208438,
106,0.00665,0.00999,0.00999,0.00665,0.0643,0.06405,0.06742,0.06769,74,107,138,105,0,0.966666,2.75474,0.0488375,208449,
107,0.00665,0.00999,0.00999,0.00665,0.06092,0.06068,0.06405,0.0643,75,108,139,106,0,1.13143,3.16121,0.0511431,208453,
108,0.00665,0.00999,0.00999,0.00665,0.05753,0.05731,0.06068,0.06092,76,109,140,107,0,0.969457,2.73539,0.0359857,208449,
109,0.00665,0.00999,0.00999,0.00665,0.05415,0.05394,0.05731,0.05753,77,110,141,108,0,0.970999,2.77219,0.0355062,208443,
110,0.00665,0.00999,0.00999,0.00665,0.05077,0.05056,0.05394,0.05415,78,111,142,109,0,0.975171,2.72381,0.0256988,208448,
111,0.00665,0.00999,0.00999,0.00665,0.04738,0.04719,0.05056,0.05077,79,112,143,110,0,0.910934,2.5334,0.00185322,208443,
112,0.00665,0.00999,0.00999,0.00665,0.044,0.04382,0.04719,0.04738,80,113,144,111,0,0.98286,2.79924,0.00133204,208437,
113,0.00665,0.00999,0.00999,0.00665,0.04061,0.04045,0.04382,0.044,81,114,145,112,0,0.975411,2.7754,0.00148378,208440,
114,0.00665,0.00999,0.00999,0.00665,0.03723,0.03708,0.04045,0.04061,82,115,146,113,0,0.97284,2.72975,-0.00480288,208448,
115,0.00665,0.00999,0.00999,0.00665,0.03384,0.03371,0.03708,0.03723,83,116,147,114,0,0.970055,2.76388,-0.0130403,208447,
116,0.00665,0.00999,0.00999,0.00665,0.03046,0.03034,0.03371,0.03384,84,117,148,115,0,0.982642,2.73672,-0.011425,208435,
117,0.00665,0.00999,0.00999,0.00665,0.02707,0.02697,0.03034,0.03046,85,118,149,116,0,0.969607,2.758,-0.014406,208443,
118,0.00665,0.00999,0.00999,0.00665,0.02369,0.0236,0.02697,0.02707,86,119,150,117,0,0.971634,2.70514,-0.0191826,208443,
119,0.00665,0.00999,0.00999,0.00665,0.02031,0.02023,0.0236,0.02369,87,120,151,118,0,0.982273,2.87281,-0.00366689,208440,
120,0.00665,0.00999,0.00999,0.00665,0.01692,0.01685,0.02023,0.02031,88,121,152,119,0,0.974145,2.78682,0.00691405,208450,
121,0.00665,0.00999,0.00999,0.00665,0.01354,0.01348,0.01685,0.01692,89,122,153,120,0,0.768141,2.13202,-0.00314359,208445,
122,0.00665,0.00999,0.00999,0.00665,0.01015,0.01011,0.01348,0.01354,90,123,154,121,0,0.963783,2.7278,-0.00523347,208449,
123,0.00665,0.00999,0.00999,0.00665,0.00677,0.00674,0.01011,0.01015,91,124,155,122,0,0.979358,2.70671,-0.00413948,208450,
124,0.00665,0.00999,0.00999,0.00665,0.00338,0.00337,0.00674,0.00677,92,125,156,123,0,0.977683,2.70359,-0.00735154,208448,
125,0.00665,0.00999,0.00999,0.00665,0,0,0.00337,0.00338,93,126,157,124,0,0.928091,2.67076,-0.00534398,208440,
126,0.00665,0.00999,0.00999,0.00665,-0.00338,-0.00337,0,0,94,-2,158,125,1,0.928091,2.67076,0.00534398,208440,
127,0.00999,0.01332,0.01332,0.00999,0.10113,0.10072,0.10407,0.1045,95,128,159,-2,1,0.968003,2.73171,0.00358543,208461,
128,0.00999,0.01332,0.01332,0.00999,0.09776,0.09736,0.10072,0.10113,96,129,160,127,0,0.968003,2.73171,-0.00358543,208461,
129,0.00999,0.01332,0.01332,0.00999,0.09439,0.094,0.09736,0.09776,97,130,161,128,0,0.986995,2.70099,0.00582095,208454,
130,0.00999,0.01332,0.01332,0.00999,0.09102,0.09065,0.094,0.09439,98,131,162,129,0,0.968909,2.69101,0.0160741,208456,
131,0.00999,0.01332,0.01332,0.00999,0.08765,0.08729,0.09065,0.09102,99,132,163,130,0,1.03703,2.89201,0.0294998,208451,
132,0.00999,0.01332,0.01332,0.00999,0.08427,0.08393,0.08729,0.08765,100,133,164,131,0,0.987116,2.75778,0.0451495,208450,
133,0.00999,0.01332,0.01332,0.00999,0.0809,0.08057,0.08393,0.08427,101,134,165,132,0,0.967313,2.74296,0.0632056,208458,
134,0.00999,0.01332,0.01332,0.00999,0.07753,0.07722,0.08057,0.0809,102,135,166,133,0,0.957998,2.81163,0.0631098,208468,
135,0.00999,0.01332,0.01332,0.00999,0.07416,0.07386,0.07722,0.07753,103,136,167,134,0,0.964072,2.73715,0.0535168,208454,
136,0.00999,0.01332,0.01332,0.00999,0.07079,0.0705,0.07386,0.07416,104,137,168,135,0,1.04794,2.87178,0.0565938,208454,
137,0.00999,0.01332,0.01332,0.00999,0.06742,0.06714,0.0705,0.07079,105,138,169,136,0,0.886906,2.65906,0.0240128,208466,
138,0.00999,0.01332,0.01332,0.00999,0.06405,0.06379,0.06714,0.06742,106,139,170,137,0,0.959202,2.71924,0.0211569,208446,
139,0.00999,0.01332,0.01332,0.00999,0.06068,0.06043,0.06379,0.06405,107,140,171,138,0,0.765049,2.12762,0.0197034,208440,
140,0.00999,0.01332,0.01332,0.00999,0.05731,0.05707,0.06043,0.06068,108,141,172,139,0,0.935104,2.62515,0.0177145,208446,
141,0.00999,0.01332,0.01332,0.00999,0.05394,0.05372,0.05707,0.05731,109,142,173,140,0,0.96193,2.7272,0.0168934,208441,
142,0.00999,0.01332,0.01332,0.00999,0.05056,0.05036,0.05372,0.05394,110,143,174,141,0,0.932852,2.60601,0.0175669,208427,
143,0.00999,0.01332,0.01332,0.00999,0.04719,0.047,0.05036,0.05056,111,144,175,142,0,1.08286,3.0076,0.0144099,208431,
144,0.00999,0.01332,0.01332,0.00999,0.04382,0.04364,0.047,0.04719,112,145,176,143,0,0.933169,2.64511,0.00986478,208430,
145,0.00999,0.01332,0.01332,0.00999,0.04045,0.04029,0.04364,0.04382,113,146,177,144,0,0.939861,2.66808,0.00246064,208447,
146,0.00999,0.01332,0.01332,0.00999,0.03708,0.03693,0.04029,0.04045,114,147,178,145,0,0.972855,2.72067,-0.00697578,208443,
147,0.00999,0.01332,0.01332,0.00999,0.03371,0.03357,0.03693,0.03708,115,148,179,146,0,0.955024,2.70228,-0.00709795,208434,
148,0.00999,0.01332,0.01332,0.00999,0.03034,0.03022,0.03357,0.03371,116,149,180,147,0,0.991277,2.75742,-0.00984323,208427,
149,0.00999,0.01332,0.01332,0.00999,0.02697,0.02686,0.03022,0.03034,117,150,181,148,0,0.967099,2.7427,-0.0189189,208441,
150,0.00999,0.01332,0.01332,0.00999,0.0236,0.0235,0.02686,0.02697,118,151,182,149,0,0.995463,2.76684,-0.0125952,208431,
151,0.00999,0.01332,0.01332,0.00999,0.02023,0.02014,0.0235,0.0236,119,152,183,150,0,0.943951,2.77343,0.00482413,208428,
152,0.00999,0.01332,0.01332,0.00999,0.01685,0.01679,0.02014,0.02023,120,153,184,151,0,0.961632,2.74572,0.0127278,208442,
153,0.00999,0.01332,0.01332,0.00999,0.01348,0.01343,0.01679,0.01685,121,154,185,152,0,1.08753,3.01474,-0.000637448,208440,
154,0.00999,0.01332,0.01332,0.00999,0.01011,0.01007,0.01343,0.01348,122,155,186,153,0,0.944359,2.66473,-0.00232766,208446,
155,0.00999,0.01332,0.01332,0.00999,0.00674,0.00671,0.01007,0.01011,123,156,187,154,0,0.988672,2.7175,-0.00323325,208446,
156,0.00999,0.01332,0.01332,0.00999,0.00337,0.00336,0.00671,0.00674,124,157,188,155,0,0.98932,2.7249,-0.0104839,208447,
157,0.00999,0.01332,0.01332,0.00999,0,0,0.00336,0.00337,125,158,189,156,0,0.964991,2.75794,-0.00820491,208437,
158,0.00999,0.01332,0.01332,0.00999,-0.00337,-0.00336,0,0,126,-2,190,157,1,0.964991,2.75794,0.00820491,208437,
159,0.01332,0.01665,0.01665,0.01332,0.10072,0.1003,0.10364,0.10407,127,160,191,-2,1,0.977831,2.74499,-0.000618867,208454,
160,0.01332,0.01665,0.01665,0.01332,0.09736,0.09695,0.1003,0.10072,128,161,192,159,0,0.977831,2.74499,0.000618867,208454,
161,0.01332,0.01665,0.01665,0.01332,0.094,0.09361,0.09695,0.09736,129,162,193,160,0,0.969044,2.64883,0.00208217,208453,
162,0.01332,0.01665,0.01665,0.01332,0.09065,0.09027,0.09361,0.094,130,163,194,161,0,0.976181,2.69911,-0.00649553,208456,
163,0.01332,0.01665,0.01665,0.01332,0.08729,0.08692,0.09027,0.09065,131,164,195,162,0,1.00189,2.78399,0.000783071,208444,
164,0.01332,0.01665,0.01665,0.01332,0.08393,0.08358,0.08692,0.08729,132,165,196,163,0,0.977765,2.71559,0.0225971,208439,
165,0.01332,0.01665,0.01665,0.01332,0.08057,0.08024,0.08358,0.08393,133,166,197,164,0,0.972678,2.74553,0.0380271,208445,
166,0.01332,0.01665,0.01665,0.01332,0.07722,0.07689,0.08024,0.08057,134,167,198,165,0,0.960619,2.85166,0.0486938,208440,
167,0.01332,0.01665,0.01665,0.01332,0.07386,0.07355,0.07689,0.07722,135,168,199,166,0,0.976094,2.77124,0.0547215,208445,
168,0.01332,0.01665,0.01665,0.01332,0.0705,0.07021,0.07355,0.07386,136,169,200,167,0,0.935176,2.57249,0.0218911,208461,
169,0.01332,0.01665,0.01665,0.01332,0.06714,0.06686,0.07021,0.0705,137,170,201,168,0,0.886799,2.7184,0.0336524,208424,
170,0.01332,0.01665,0.01665,0.01332,0.06379,0.06352,0.06686,0.06714,138,171,202,169,0,0.984054,2.78161,0.0676905,208440,
171,0.01332,0.01665,0.01665,0.01332,0.06043,0.06018,0.06352,0.06379,139,172,203,170,0,1.20532,3.34515,0.074204,208439,
172,0.01332,0.01665,0.01665,0.01332,0.05707,0.05684,0.06018,0.06043,140,173,204,171,0,0.957381,2.70059,0.0337802,208447,
173,0.01332,0.01665,0.01665,0.01332,0.05372,0.05349,0.05684,0.05707,141,174,205,172,0,0.980334,2.76811,0.012703,208434,
174,0.01332,0.01665,0.01665,0.01332,0.05036,0.05015,0.05349,0.05372,142,175,206,173,0,0.969975,2.69377,0.0128117,208425,
175,0.01332,0.01665,0.01665,0.01332,0.047,0.04681,0.05015,0.05036,143,176,207,174,0,0.939511,2.62626,0.0045173,208439,
176,0.01332,0.01665,0.01665,0.01332,0.04364,0.04346,0.04681,0.047,144,177,208,175,0,0.983499,2.7876,-0.014798,208428,
177,0.01332,0.01665,0.01665,0.01332,0.04029,0.04012,0.04346,0.04364,145,178,209,176,0,0.889648,2.51694,-0.0213602,208440,
178,0.01332,0.01665,0.01665,0.01332,0.03693,0.03678,0.04012,0.04029,146,179,210,177,0,0.9766,2.72306,-0.0209431,208436,
179,0.01332,0.01665,0.01665,0.01332,0.03357,0.03343,0.03678,0.03693,147,180,211,178,0,0.995011,2.80077,-0.0208598,208433,
180,0.01332,0.01665,0.01665,0.01332,0.03022,0.03009,0.03343,0.03357,148,181,212,179,0,0.954419,2.64783,-0.0245326,208425,
181,0.01332,0.01665,0.01665,0.01332,0.02686,0.02675,0.03009,0.03022,149,182,213,180,0,0.979325,2.76875,-0.0320513,208435,
182,0.01332,0.01665,0.01665,0.01332,0.0235,0.0234,0.02675,0.02686,150,183,214,181,0,0.982609,2.7081,-0.0147953,208419,
183,0.01332,0.01665,0.01665,0.01332,0.02014,0.02006,0.0234,0.0235,151,184,215,182,0,1.05346,3.10566,0.0184111,208422,
184,0.01332,0.01665,0.01665,0.01332,0.01679,0.01672,0.02006,0.02014,152,185,216,183,0,0.978797,2.78772,0.0344122,208433,
185,0.01332,0.01665,0.01665,0.01332,0.01343,0.01337,0.01672,0.01679,153,186,217,184,0,0.954778,2.65334,0.00990315,208442,
186,0.01332,0.01665,0.01665,0.01332,0.01007,0.01003,0.01337,0.01343,154,187,218,185,0,0.967415,2.72343,-0.0078989,208438,
187,0.01332,0.01665,0.01665,0.01332,0.00671,0.00669,0.01003,0.01007,155,188,219,186,0,0.972426,2.66227,-0.00888486,208434,
188,0.01332,0.01665,0.01665,0.01332,0.00336,0.00334,0.00669,0.00671,156,189,220,187,0,0.96595,2.651,-0.0153213,208444,
189,0.01332,0.01665,0.01665,0.01332,0,0,0.00334,0.00336,157,190,221,188,0,0.957458,2.71716,-0.0091528,208436,
190,0.01332,0.01665,0.01665,0.01332,-0.00336,-0.00334,0,0,158,-2,222,189,1,0.957458,2.71716,0.0091528,208436,
191,0.01665,0.01999,0.01999,0.01665,0.1003,0.09987,0.1032,0.10364,159,192,223,-2,1,0.972303,2.69959,-0.0075928,208448,
192,0.01665,0.01999,0.01999,0.01665,0.09695,0.09654,0.09987,0.1003,160,193,224,191,0,0.972303,2.69959,0.0075928,208448,
193,0.01665,0.01999,0.01999,0.01665,0.09361,0.09321,0.09654,0.09695,161,194,225,192,0,0.977137,2.6692,0.0119317,208450,
194,0.01665,0.01999,0.01999,0.01665,0.09027,0.08988,0.09321,0.09361,162,195,226,193,0,0.961089,2.64619,-0.00183933,208451,
195,0.01665,0.01999,0.01999,0.01665,0.08692,0.08655,0.08988,0.09027,163,196,227,194,0,0.440877,1.20833,0.00328242,208433,
196,0.01665,0.01999,0.01999,0.01665,0.08358,0.08322,0.08655,0.08692,164,197,228,195,0,0.977903,2.69861,0.0328039,208437,
197,0.01665,0.01999,0.01999,0.01665,0.08024,0.0799,0.08322,0.08358,165,198,229,196,0,0.965505,2.69515,0.0460106,208432,
198,0.01665,0.01999,0.01999,0.01665,0.07689,0.07657,0.0799,0.08024,166,199,230,197,0,0.972888,2.89513,0.0593145,208434,
199,0.01665,0.01999,0.01999,0.01665,0.07355,0.07324,0.07657,0.07689,167,200,231,198,0,0.969843,2.74267,0.0608752,208440,
200,0.01665,0.01999,0.01999,0.01665,0.07021,0.06991,0.07324,0.07355,168,201,232,199,0,0.934798,2.57164,0.0361638,208439,
201,0.01665,0.01999,0.01999,0.01665,0.06686,0.06658,0.06991,0.07021,169,202,233,200,0,0.987235,3.05257,0.0627618,208420,
202,0.01665,0.01999,0.01999,0.01665,0.06352,0.06325,0.06658,0.06686,170,203,234,201,0,0.969458,2.71832,0.0923401,208428,
203,0.01665,0.01999,0.01999,0.01665,0.06018,0.05992,0.06325,0.06352,171,204,235,202,0,0.797499,2.19912,0.069656,208433,
204,0.01665,0.01999,0.01999,0.01665,0.05684,0.05659,0.05992,0.06018,172,205,236,203,0,0.963591,2.71649,0.0717828,208435,
205,0.01665,0.01999,0.01999,0.01665,0.05349,0.05326,0.05659,0.05684,173,206,237,204,0,0.956584,2.68716,0.0624248,208429,
206,0.01665,0.01999,0.01999,0.01665,0.05015,0.04993,0.05326,0.05349,174,207,238,205,0,0.937853,2.58921,0.0537854,208425,
207,0.01665,0.01999,0.01999,0.01665,0.04681,0.04661,0.04993,0.05015,175,208,239,206,0,0.895839,2.5092,0.0444821,208430,
208,0.01665,0.01999,0.01999,0.01665,0.04346,0.04328,0.04661,0.04681,176,209,240,207,0,0.95741,2.70462,0.0460112,208430,
209,0.01665,0.01999,0.01999,0.01665,0.04012,0.03995,0.04328,0.04346,177,210,241,208,0,0.985801,2.77427,0.0411776,208427,
210,0.01665,0.01999,0.01999,0.01665,0.03678,0.03662,0.03995,0.04012,178,211,242,209,0,0.964074,2.67592,0.0386559,208423,
211,0.01665,0.01999,0.01999,0.01665,0.03343,0.03329,0.03662,0.03678,179,212,243,210,0,0.945551,2.64994,0.038578,208415,
212,0.01665,0.01999,0.01999,0.01665,0.03009,0.02996,0.03329,0.03343,180,213,244,211,0,0.997833,2.75736,0.035828,208421,
213,0.01665,0.01999,0.01999,0.01665,0.02675,0.02663,0.02996,0.03009,181,214,245,212,0,0.965578,2.72117,0.0306989,208429,
214,0.01665,0.01999,0.01999,0.01665,0.0234,0.0233,0.02663,0.02675,182,215,246,213,0,0.984907,2.70307,0.0337369,208424,
215,0.01665,0.01999,0.01999,0.01665,0.02006,0.01997,0.0233,0.0234,183,216,247,214,0,0.911851,2.73249,0.0283794,208435,
216,0.01665,0.01999,0.01999,0.01665,0.01672,0.01664,0.01997,0.02006,184,217,248,215,0,0.972646,2.74152,0.0306198,208429,
217,0.01665,0.01999,0.01999,0.01665,0.01337,0.01332,0.01664,0.01672,185,218,249,216,0,0.880617,2.48409,0.0215474,208447,
218,0.01665,0.01999,0.01999,0.01665,0.01003,0.00999,0.01332,0.01337,186,219,250,217,0,0.964726,2.71517,-0.00498668,208434,
219,0.01665,0.01999,0.01999,0.01665,0.00669,0.00666,0.00999,0.01003,187,220,251,218,0,0.986961,2.69762,-0.00542512,208429,
220,0.01665,0.01999,0.01999,0.01665,0.00334,0.00333,0.00666,0.00669,188,221,252,219,0,0.98881,2.70708,-0.0108663,208439,
221,0.01665,0.01999,0.01999,0.01665,0,0,0.00333,0.00334,189,222,253,220,0,0.981512,2.76745,-0.00716649,208432,
222,0.01665,0.01999,0.01999,0.01665,-0.00334,-0.00333,0,0,190,-2,254,221,1,0.981512,2.76745,0.00716649,208432,
223,0.01999,0.02332,0.02332,0.01999,0.09987,0.09943,0.10275,0.1032,191,224,255,-2,1,0.975159,2.67943,-0.00763165,208447,
224,0.01999,0.02332,0.02332,0.01999,0.09654,0.09612,0.09943,0.09987,192,225,256,223,0,0.975159,2.67943,0.00763165,208447,
225,0.01999,0.02332,0.02332,0.01999,0.09321,0.09281,0.09612,0.09654,193,226,257,224,0,0.962948,2.6292,0.0149789,208448,
226,0.01999,0.02332,0.02332,0.01999,0.08988,0.08949,0.09281,0.09321,194,227,258,225,0,0.974919,2.67227,0.0108524,208448,
227,0.01999,0.02332,0.02332,0.01999,0.08655,0.08618,0.08949,0.08988,195,228,259,226,0,1.31331,3.56139,0.0133895,208446,
228,0.01999,0.02332,0.02332,0.01999,0.08322,0.08286,0.08618,0.08655,196,229,260,227,0,0.960999,2.64971,0.00665338,208435,
229,0.01999,0.02332,0.02332,0.01999,0.0799,0.07955,0.08286,0.08322,197,230,261,228,0,0.968379,2.68073,0.0234642,208431,
230,0.01999,0.02332,0.02332,0.01999,0.07657,0.07623,0.07955,0.0799,198,231,262,229,0,0.964907,2.88423,0.0472655,208428,
231,0.01999,0.02332,0.02332,0.01999,0.07324,0.07292,0.07623,0.07657,199,232,263,230,0,0.976499,2.75348,0.0615934,208436,
232,0.01999,0.02332,0.02332,0.01999,0.06991,0.0696,0.07292,0.07324,200,233,264,231,0,0.948883,2.61673,0.0363961,208448,
233,0.01999,0.02332,0.02332,0.01999,0.06658,0.06629,0.0696,0.06991,201,234,265,232,0,0.936872,2.95482,0.023036,208429,
234,0.01999,0.02332,0.02332,0.01999,0.06325,0.06298,0.06629,0.06658,202,235,266,233,0,0.973959,2.71232,0.0310249,208426,
235,0.01999,0.02332,0.02332,0.01999,0.05992,0.05966,0.06298,0.06325,203,236,267,234,0,1.20695,3.32245,0.0365353,208430,
236,0.01999,0.02332,0.02332,0.01999,0.05659,0.05635,0.05966,0.05992,204,237,268,235,0,0.97058,2.72601,0.0203315,208426,
237,0.01999,0.02332,0.02332,0.01999,0.05326,0.05303,0.05635,0.05659,205,238,269,236,0,0.981811,2.74084,0.0157163,208429,
238,0.01999,0.02332,0.02332,0.01999,0.04993,0.04972,0.05303,0.05326,206,239,270,237,0,1.00543,2.7665,0.0143701,208422,
239,0.01999,0.02332,0.02332,0.01999,0.04661,0.0464,0.04972,0.04993,207,240,271,238,0,0.993952,2.77528,0.0130205,208428,
240,0.01999,0.02332,0.02332,0.01999,0.04328,0.04309,0.0464,0.04661,208,241,272,239,0,1.03871,2.92196,0.0123947,208425,
241,0.01999,0.02332,0.02332,0.01999,0.03995,0.03977,0.04309,0.04328,209,242,273,240,0,0.93209,2.61673,0.00229684,208408,
242,0.01999,0.02332,0.02332,0.01999,0.03662,0.03646,0.03977,0.03995,210,243,274,241,0,0.97375,2.69295,-0.00858766,208418,
243,0.01999,0.02332,0.02332,0.01999,0.03329,0.03314,0.03646,0.03662,211,244,275,242,0,1.04342,2.90604,-0.0107315,208410,
244,0.01999,0.02332,0.02332,0.01999,0.02996,0.02983,0.03314,0.03329,212,245,276,243,0,0.939699,2.58326,-0.0131636,208408,
245,0.01999,0.02332,0.02332,0.01999,0.02663,0.02652,0.02983,0.02996,213,246,277,244,0,0.97785,2.75145,-0.021579,208419,
246,0.01999,0.02332,0.02332,0.01999,0.0233,0.0232,0.02652,0.02663,214,247,278,245,0,0.960965,2.62805,-0.0127853,208409,
247,0.01999,0.02332,0.02332,0.01999,0.01997,0.01989,0.0232,0.0233,215,248,279,246,0,0.895649,2.72592,0.0127528,208410,
248,0.01999,0.02332,0.02332,0.01999,0.01664,0.01657,0.01989,0.01997,216,249,280,247,0,0.977061,2.73813,0.0334212,208420,
249,0.01999,0.02332,0.02332,0.01999,0.01332,0.01326,0.01657,0.01664,217,250,281,248,0,0.880241,2.512,0.0156277,208417,
250,0.01999,0.02332,0.02332,0.01999,0.00999,0.00994,0.01326,0.01332,218,251,282,249,0,0.97766,2.74775,0.00511974,208428,
251,0.01999,0.02332,0.02332,0.01999,0.00666,0.00663,0.00994,0.00999,219,252,283,250,0,0.959612,2.61114,0.00297481,208434,
252,0.01999,0.02332,0.02332,0.01999,0.00333,0.00331,0.00663,0.00666,220,253,284,251,0,0.965351,2.6322,0.00313283,208434,
253,0.01999,0.02332,0.02332,0.01999,0,0,0.00331,0.00333,221,254,285,252,0,0.959144,2.69248,0.00217215,208423,
254,0.01999,0.02332,0.02332,0.01999,-0.00333,-0.00331,0,0,222,-2,286,253,1,0.959144,2.69248,-0.00217215,208423,
255,0.02332,0.02665,0.02665,0.02332,0.09943,0.09899,0.10229,0.10275,223,256,287,-2,1,0.963583,2.63855,0.000499792,208438,
256,0.02332,0.02665,0.02665,0.02332,0.09612,0.09569,0.09899,0.09943,224,257,288,255,0,0.963583,2.63855,-0.000499792,208438,
257,0.02332,0.02665,0.02665,0.02332,0.09281,0.0924,0.09569,0.09612,225,258,289,256,0,0.973476,2.65828,0.00780844,208442,
258,0.02332,0.02665,0.02665,0.02332,0.08949,0.0891,0.0924,0.09281,226,259,290,257,0,0.962254,2.63523,0.0113257,208442,
259,0.02332,0.02665,0.02665,0.02332,0.08618,0.0858,0.0891,0.08949,227,260,291,258,0,0.343023,0.92714,0.00186298,208436,