'cellnumber','cornerlocs_x','cornerlocs_y','adjacent_cells','edge_state','initial_conditions'
1,-0.00335,-1e-05,-1e-05,-0.00335,0.09926,0.09889,0.1023,0.10268,-2,2,32,-2,3,1,1,0,200000,
2,-0.00335,-1e-05,-1e-05,-0.00335,0.09584,0.09548,0.09889,0.09926,-2,3,33,1,3,1,1,0,200000,
3,-0.00335,-1e-05,-1e-05,-0.00335,0.09241,0.09207,0.09548,0.09584,-2,4,34,2,3,1,1,0,200000,
4,-0.00335,-1e-05,-1e-05,-0.00335,0.08899,0.08866,0.09207,0.09241,-2,5,35,3,3,1,1,0,200000,
5,-0.00335,-1e-05,-1e-05,-0.00335,0.08557,0.08525,0.08866,0.08899,-2,6,36,4,3,1,1,0,200000,
6,-0.00335,-1e-05,-1e-05,-0.00335,0.08214,0.08184,0.08525,0.08557,-2,7,37,5,3,1,1,0,200000,
7,-0.00335,-1e-05,-1e-05,-0.00335,0.07872,0.07843,0.08184,0.08214,-2,8,38,6,3,1,1,0,200000,
8,-0.00335,-1e-05,-1e-05,-0.00335,0.0753,0.07502,0.07843,0.07872,-2,9,39,7,3,1,1,0,200000,
9,-0.00335,-1e-05,-1e-05,-0.00335,0.07188,0.07161,0.07502,0.0753,-2,10,40,8,3,1,1,0,200000,
10,-0.00335,-1e-05,-1e-05,-0.00335,0.06845,0.0682,0.07161,0.07188,-2,11,41,9,3,1,1,0,200000,
11,-0.00335,-1e-05,-1e-05,-0.00335,0.06503,0.06479,0.0682,0.06845,-2,12,42,10,3,1,1,0,200000,
12,-0.00335,-1e-05,-1e-05,-0.00335,0.06161,0.06138,0.06479,0.06503,-2,13,43,11,3,1,1,0,200000,
13,-0.00335,-1e-05,-1e-05,-0.00335,0.05819,0.05797,0.06138,0.06161,-2,14,44,12,3,1,1,0,200000,
14,-0.00335,-1e-05,-1e-05,-0.00335,0.05476,0.05456,0.05797,0.05819,-2,15,45,13,3,1,1,0,200000,
15,-0.00335,-1e-05,-1e-05,-0.00335,0.05134,0.05115,0.05456,0.05476,-2,16,46,14,3,1,1,0,200000,
16,-0.00335,-1e-05,-1e-05,-0.00335,0.04792,0.04774,0.05115,0.05134,-2,17,47,15,3,1,1,0,200000,
17,-0.00335,-1e-05,-1e-05,-0.00335,0.0445,0.04433,0.04774,0.04792,-2,18,48,16,3,1,1,0,200000,
18,-0.00335,-1e-05,-1e-05,-0.00335,0.04107,0.04092,0.04433,0.0445,-2,19,49,17,3,1,1,0,200000,
19,-0.00335,-1e-05,-1e-05,-0.00335,0.03765,0.03751,0.04092,0.04107,-2,20,50,18,3,1,1,0,200000,
20,-0.00335,-1e-05,-1e-05,-0.00335,0.03423,0.0341,0.03751,0.03765,-2,21,51,19,3,1,1,0,200000,
21,-0.00335,-1e-05,-1e-05,-0.00335,0.0308,0.03069,0.0341,0.03423,-2,22,52,20,3,1,1,0,200000,
22,-0.00335,-1e-05,-1e-05,-0.00335,0.02738,0.02728,0.03069,0.0308,-2,23,53,21,3,1,1,0,200000,
23,-0.00335,-1e-05,-1e-05,-0.00335,0.02396,0.02387,0.02728,0.02738,-2,24,54,22,3,1,1,0,200000,
24,-0.00335,-1e-05,-1e-05,-0.00335,0.02054,0.02046,0.02387,0.02396,-2,25,55,23,3,1,1,0,200000,
25,-0.00335,-1e-05,-1e-05,-0.00335,0.01711,0.01705,0.02046,0.02054,-2,26,56,24,3,1,1,0,200000,
26,-0.00335,-1e-05,-1e-05,-0.00335,0.01369,0.01364,0.01705,0.01711,-2,27,57,25,3,1,1,0,200000,
27,-0.00335,-1e-05,-1e-05,-0.00335,0.01027,0.01023,0.01364,0.01369,-2,28,58,26,3,1,1,0,200000,
28,-0.00335,-1e-05,-1e-05,-0.00335,0.00685,0.00682,0.01023,0.01027,-2,29,59,27,3,1,1,0,200000,
29,-0.00335,-1e-05,-1e-05,-0.00335,0.00342,0.00341,0.00682,0.00685,-2,30,60,28,3,1,1,0,200000,
30,-0.00335,-1e-05,-1e-05,-0.00335,0,0,0.00341,0.00342,-2,-2,61,29,3,1,1,0,200000,
31,-1e-05,0.00332,0.00332,-1e-05,0.1023,0.10192,0.10532,0.10571,-2,32,63,-2,1,0.9991119867,1.327544576,-0.1944977932,199752.635,
32,-1e-05,0.00332,0.00332,-1e-05,0.09889,0.09852,0.10192,0.1023,1,33,64,31,0,0.9991119867,1.337233639,-0.1095910121,199752.635,
33,-1e-05,0.00332,0.00332,-1e-05,0.09548,0.09513,0.09852,0.09889,2,34,65,32,0,0.9990500597,1.341145629,-0.08137030955,199735.3142,
34,-1e-05,0.00332,0.00332,-1e-05,0.09207,0.09173,0.09513,0.09548,3,35,66,33,0,0.9990156688,1.343569146,-0.06328317786,199725.6955,
35,-1e-05,0.00332,0.00332,-1e-05,0.08866,0.08833,0.09173,0.09207,4,36,67,34,0,0.9989955022,1.345097819,-0.05111858367,199720.0554,
36,-1e-05,0.00332,0.00332,-1e-05,0.08525,0.08494,0.08833,0.08866,5,37,68,35,0,0.9989829144,1.346153637,-0.04255665714,199716.535,
37,-1e-05,0.00332,0.00332,-1e-05,0.08184,0.08154,0.08494,0.08525,6,38,69,36,0,0.9989745115,1.346978053,-0.0363094818,199714.1854,
38,-1e-05,0.00332,0.00332,-1e-05,0.07843,0.07814,0.08154,0.08184,7,39,70,37,0,0.9989686272,1.347650836,-0.03153364841,199712.5402,
39,-1e-05,0.00332,0.00332,-1e-05,0.07502,0.07474,0.07814,0.07843,8,40,71,38,0,0.9989642497,1.348232991,-0.02777054248,199711.3166,
40,-1e-05,0.00332,0.00332,-1e-05,0.07161,0.07135,0.07474,0.07502,9,41,72,39,0,0.9989608472,1.348746972,-0.02470943057,199710.3656,
41,-1e-05,0.00332,0.00332,-1e-05,0.0682,0.06795,0.07135,0.07161,10,42,73,40,0,0.9989580853,1.349217963,-0.02217834282,199709.594,
42,-1e-05,0.00332,0.00332,-1e-05,0.06479,0.06455,0.06795,0.0682,11,43,74,41,0,0.9989557976,1.34965025,-0.02001880728,199708.9549,
43,-1e-05,0.00332,0.00332,-1e-05,0.06138,0.06115,0.06455,0.06479,12,44,75,42,0,0.9989538448,1.35004916,-0.0181433858,199708.4095,
44,-1e-05,0.00332,0.00332,-1e-05,0.05797,0.05776,0.06115,0.06138,13,45,76,43,0,0.998952138,1.350418895,-0.01648788498,199707.9329,
45,-1e-05,0.00332,0.00332,-1e-05,0.05456,0.05436,0.05776,0.05797,14,46,77,44,0,0.9989506146,1.350769755,-0.01501986078,199707.5076,
46,-1e-05,0.00332,0.00332,-1e-05,0.05115,0.05096,0.05436,0.05456,15,47,78,45,0,0.9989492604,1.351098502,-0.01368519102,199707.1296,
47,-1e-05,0.00332,0.00332,-1e-05,0.04774,0.04756,0.05096,0.05115,16,48,79,46,0,0.9989480412,1.351405433,-0.01246212379,199706.7894,
48,-1e-05,0.00332,0.00332,-1e-05,0.04433,0.04417,0.04756,0.04774,17,49,80,47,0,0.9989469379,1.351689228,-0.01132647501,199706.4815,
49,-1e-05,0.00332,0.00332,-1e-05,0.04092,0.04077,0.04417,0.04433,18,50,81,48,0,0.9989459174,1.351960637,-0.01027762697,199706.1968,
50,-1e-05,0.00332,0.00332,-1e-05,0.03751,0.03737,0.04077,0.04092,19,51,82,49,0,0.9989450029,1.352211068,-0.009283756497,199705.9416,
51,-1e-05,0.00332,0.00332,-1e-05,0.0341,0.03397,0.03737,0.03751,20,52,83,50,0,0.9989441714,1.352442368,-0.008341569425,199705.7097,
52,-1e-05,0.00332,0.00332,-1e-05,0.03069,0.03058,0.03397,0.0341,21,53,84,51,0,0.9989434262,1.35265094,-0.007439505352,199705.5018,
53,-1e-05,0.00332,0.00332,-1e-05,0.02728,0.02718,0.03058,0.03069,22,54,85,52,0,0.9989427416,1.352846453,-0.006580507032,199705.3109,
54,-1e-05,0.00332,0.00332,-1e-05,0.02387,0.02378,0.02718,0.02728,23,55,86,53,0,0.9989421462,1.353019423,-0.005745604551,199705.1448,
55,-1e-05,0.00332,0.00332,-1e-05,0.02046,0.02038,0.02378,0.02387,24,56,87,54,0,0.9989416241,1.353171691,-0.004935306122,199704.9993,
56,-1e-05,0.00332,0.00332,-1e-05,0.01705,0.01699,0.02038,0.02046,25,57,88,55,0,0.9989411805,1.353301159,-0.004144396587,199704.8756,
57,-1e-05,0.00332,0.00332,-1e-05,0.01364,0.01359,0.01699,0.01705,26,58,89,56,0,0.9989408001,1.353413692,-0.003372379394,199704.7695,
58,-1e-05,0.00332,0.00332,-1e-05,0.01023,0.01019,0.01359,0.01364,27,59,90,57,0,0.9989405002,1.353503459,-0.002610434025,199704.6859,
59,-1e-05,0.00332,0.00332,-1e-05,0.00682,0.00679,0.01019,0.01023,28,60,91,58,0,0.9989402773,1.353569769,-0.001857252194,199704.6237,
60,-1e-05,0.00332,0.00332,-1e-05,0.00341,0.0034,0.00679,0.00682,29,61,92,59,0,0.998940133,1.353612265,-0.001111635513,199704.5835,
61,-1e-05,0.00332,0.00332,-1e-05,0,0,0.0034,0.00341,30,62,93,60,0,0.9989400518,1.353636826,-0.000370613679,199704.5608,
62,-1e-05,0.00332,0.00332,-1e-05,-0.00341,-0.0034,0,0,-2,-2,94,61,1,0.9989400518,1.353636826,0.000370613679,199704.5608,
63,0.00332,0.00665,0.00665,0.00332,0.10192,0.10153,0.10492,0.10532,31,64,95,-2,1,0.9990566808,1.368902915,-0.1770068935,199737.3168,
64,0.00332,0.00665,0.00665,0.00332,0.09852,0.09815,0.10153,0.10192,32,65,96,63,0,0.9990566808,1.372758216,-0.1440885543,199737.3168,
65,0.00332,0.00665,0.00665,0.00332,0.09513,0.09476,0.09815,0.09852,33,66,97,64,0,0.9990277129,1.368144243,-0.1222643384,199729.1863,
66,0.00332,0.00665,0.00665,0.00332,0.09173,0.09138,0.09476,0.09513,34,67,98,65,0,0.9990062926,1.363583396,-0.1036141576,199723.1687,
67,0.00332,0.00665,0.00665,0.00332,0.08833,0.08799,0.09138,0.09173,35,68,99,66,0,0.9989908519,1.360294108,-0.0885800624,199718.8304,
68,0.00332,0.00665,0.00665,0.00332,0.08494,0.08461,0.08799,0.08833,36,69,100,67,0,0.9989797919,1.358091794,-0.07658262411,199715.7231,
69,0.00332,0.00665,0.00665,0.00332,0.08154,0.08122,0.08461,0.08494,37,70,101,68,0,0.998971643,1.356669887,-0.06694874512,199713.4342,
70,0.00332,0.00665,0.00665,0.00332,0.07814,0.07784,0.08122,0.08154,38,71,102,69,0,0.9989655299,1.355783337,-0.05911490989,199711.7176,
71,0.00332,0.00665,0.00665,0.00332,0.07474,0.07446,0.07784,0.07814,39,72,103,70,0,0.9989607746,1.355259039,-0.05266668394,199710.3829,
72,0.00332,0.00665,0.00665,0.00332,0.07135,0.07107,0.07446,0.07474,40,73,104,71,0,0.9989570143,1.35497403,-0.04727547978,199709.3278,
73,0.00332,0.00665,0.00665,0.00332,0.06795,0.06769,0.07107,0.07135,41,74,105,72,0,0.998953949,1.354832451,-0.04264163423,199708.4679,
74,0.00332,0.00665,0.00665,0.00332,0.06455,0.0643,0.06769,0.06795,42,75,106,73,0,0.9989513653,1.35480607,-0.03865033576,199707.7435,
75,0.00332,0.00665,0.00665,0.00332,0.06115,0.06092,0.0643,0.06455,43,76,107,74,0,0.9989491689,1.354850035,-0.03513262391,199707.128,
76,0.00332,0.00665,0.00665,0.00332,0.05776,0.05753,0.06092,0.06115,44,77,108,75,0,0.9989472657,1.354946347,-0.0320213303,199706.5948,
77,0.00332,0.00665,0.00665,0.00332,0.05436,0.05415,0.05753,0.05776,45,78,109,76,0,0.9989455982,1.35506715,-0.0291924154,199706.1278,
78,0.00332,0.00665,0.00665,0.00332,0.05096,0.05077,0.05415,0.05436,46,79,110,77,0,0.9989440961,1.355214453,-0.02662887501,199705.7073,
79,0.00332,0.00665,0.00665,0.00332,0.04756,0.04738,0.05077,0.05096,47,80,111,78,0,0.9989427576,1.355375524,-0.02427430791,199705.3327,
80,0.00332,0.00665,0.00665,0.00332,0.04417,0.044,0.04738,0.04756,48,81,112,79,0,0.9989415637,1.355541335,-0.02208620221,199704.9986,
81,0.00332,0.00665,0.00665,0.00332,0.04077,0.04061,0.044,0.04417,49,82,113,80,0,0.998940475,1.355707785,-0.02003694814,199704.6941,
82,0.00332,0.00665,0.00665,0.00332,0.03737,0.03723,0.04061,0.04077,50,83,114,81,0,0.9989394919,1.355872983,-0.01810112591,199704.4191,
83,0.00332,0.00665,0.00665,0.00332,0.03397,0.03384,0.03723,0.03737,51,84,115,82,0,0.9989385981,1.356035496,-0.01627044079,199704.1692,
84,0.00332,0.00665,0.00665,0.00332,0.03058,0.03046,0.03384,0.03397,52,85,116,83,0,0.9989378089,1.356188071,-0.01451903128,199703.9486,
85,0.00332,0.00665,0.00665,0.00332,0.02718,0.02707,0.03046,0.03058,53,86,117,84,0,0.9989370945,1.35633088,-0.01283503818,199703.749,
86,0.00332,0.00665,0.00665,0.00332,0.02378,0.02369,0.02707,0.02718,54,87,118,85,0,0.9989364679,1.356461447,-0.01120466223,199703.5738,
87,0.00332,0.00665,0.00665,0.00332,0.02038,0.02031,0.02369,0.02378,55,88,119,86,0,0.9989359159,1.356579854,-0.009625508298,199703.4196,
88,0.00332,0.00665,0.00665,0.00332,0.01699,0.01692,0.02031,0.02038,56,89,120,87,0,0.9989354468,1.356686158,-0.008088521612,199703.2885,
89,0.00332,0.00665,0.00665,0.00332,0.01359,0.01354,0.01692,0.01699,57,90,121,88,0,0.9989350621,1.356771634,-0.006575039535,199703.1811,
90,0.00332,0.00665,0.00665,0.00332,0.01019,0.01015,0.01354,0.01359,58,91,122,89,0,0.9989347467,1.356844062,-0.005090173099,199703.093,
91,0.00332,0.00665,0.00665,0.00332,0.00679,0.00677,0.01015,0.01019,59,92,123,90,0,0.9989345151,1.356897777,-0.003621977798,199703.0283,
92,0.00332,0.00665,0.00665,0.00332,0.0034,0.00338,0.00677,0.00679,60,93,124,91,0,0.9989343573,1.356936363,-0.002169132602,199702.9842,
93,0.00332,0.00665,0.00665,0.00332,0,0,0.00338,0.0034,61,94,125,92,0,0.9989342816,1.356952554,-0.0007219137637,199702.9631,
94,0.00332,0.00665,0.00665,0.00332,-0.0034,-0.00338,0,0,62,-2,126,93,1,0.9989342816,1.356952554,0.0007219137637,199702.9631,
95,0.00665,0.00999,0.00999,0.00665,0.10153,0.10113,0.1045,0.10492,63,96,127,-2,1,0.9990268692,1.389404573,-0.174422396,199729.0583,
96,0.00665,0.00999,0.00999,0.00665,0.09815,0.09776,0.10113,0.10153,64,97,128,95,0,0.9990268692,1.391299937,-0.1585961082,199729.0583,
97,0.00665,0.00999,0.00999,0.00665,0.09476,0.09439,0.09776,0.09815,65,98,129,96,0,0.9990124659,1.386174154,-0.1438874658,199725.0028,
98,0.00665,0.00999,0.00999,0.00665,0.09138,0.09102,0.09439,0.09476,66,99,130,97,0,0.9989989906,1.379900438,-0.1288538706,199721.2023,
99,0.00665,0.00999,0.00999,0.00665,0.08799,0.08765,0.09102,0.09138,67,100,131,98,0,0.9989876521,1.374390069,-0.1148314845,199718.003,
100,0.00665,0.00999,0.00999,0.00665,0.08461,0.08427,0.08765,0.08799,68,101,132,99,0,0.9989785652,1.370080925,-0.1024017271,199715.4389,
101,0.00665,0.00999,0.00999,0.00665,0.08122,0.0809,0.08427,0.08461,69,102,133,100,0,0.9989713254,1.366826466,-0.0915560975,199713.3965,
102,0.00665,0.00999,0.00999,0.00665,0.07784,0.07753,0.0809,0.08122,70,103,134,101,0,0.998965545,1.364455665,-0.08222510783,199711.7664,
103,0.00665,0.00999,0.00999,0.00665,0.07446,0.07416,0.07753,0.07784,71,104,135,102,0,0.9989608729,1.362733097,-0.07415900929,199710.4494,
104,0.00665,0.00999,0.00999,0.00665,0.07107,0.07079,0.07416,0.07446,72,105,136,103,0,0.9989570362,1.361488446,-0.06713834603,199709.3685,
105,0.00665,0.00999,0.00999,0.00665,0.06769,0.06742,0.07079,0.07107,73,106,137,104,0,0.9989538506,1.360600043,-0.06099958167,199708.4714,
106,0.00665,0.00999,0.00999,0.00665,0.0643,0.06405,0.06742,0.06769,74,107,138,105,0,0.9989511411,1.3599606,-0.055557641,199707.7088,
107,0.00665,0.00999,0.00999,0.00665,0.06092,0.06068,0.06405,0.0643,75,108,139,106,0,0.9989488153,1.359520811,-0.05071576403,199707.0546,
108,0.00665,0.00999,0.00999,0.00665,0.05753,0.05731,0.06068,0.06092,76,109,140,107,0,0.9989467896,1.359215739,-0.04633874171,199706.485,
109,0.00665,0.00999,0.00999,0.00665,0.05415,0.05394,0.05731,0.05753,77,110,141,108,0,0.9989450098,1.359018473,-0.04236636549,199705.9849,
110,0.00665,0.00999,0.00999,0.00665,0.05077,0.05056,0.05394,0.05415,78,111,142,109,0,0.9989434277,1.358898744,-0.0387204041,199705.5406,
111,0.00665,0.00999,0.00999,0.00665,0.04738,0.04719,0.05056,0.05077,79,112,143,110,0,0.9989420167,1.358831081,-0.03532854668,199705.1444,
112,0.00665,0.00999,0.00999,0.00665,0.044,0.04382,0.04719,0.04738,80,113,144,111,0,0.9989407484,1.358813163,-0.03218083643,199704.7885,
113,0.00665,0.00999,0.00999,0.00665,0.04061,0.04045,0.04382,0.044,81,114,145,112,0,0.9989396029,1.358821095,-0.02921388386,199704.4671,
114,0.00665,0.00999,0.00999,0.00665,0.03723,0.03708,0.04045,0.04061,82,115,146,113,0,0.9989385707,1.358857383,-0.02641804328,199704.1777,
115,0.00665,0.00999,0.00999,0.00665,0.03384,0.03371,0.03708,0.03723,83,116,147,114,0,0.9989376406,1.358905056,-0.02374924073,199703.9169,
116,0.00665,0.00999,0.00999,0.00665,0.03046,0.03034,0.03371,0.03384,84,117,148,115,0,0.9989368172,1.358964664,-0.02120240517,199703.6862,
117,0.00665,0.00999,0.00999,0.00665,0.02707,0.02697,0.03034,0.03046,85,118,149,116,0,0.9989360734,1.359027457,-0.01874632552,199703.4778,
118,0.00665,0.00999,0.00999,0.00665,0.02369,0.0236,0.02697,0.02707,86,119,150,117,0,0.9989354229,1.359094288,-0.01637495934,199703.2956,
119,0.00665,0.00999,0.00999,0.00665,0.02031,0.02023,0.0236,0.02369,87,120,151,118,0,0.9989348601,1.359155977,-0.01406887713,199703.1379,
120,0.00665,0.00999,0.00999,0.00665,0.01692,0.01685,0.02023,0.02031,88,121,152,119,0,0.9989343746,1.359213502,-0.01181750241,199703.002,
121,0.00665,0.00999,0.00999,0.00665,0.01354,0.01348,0.01685,0.01692,89,122,153,120,0,0.9989339775,1.359265584,-0.009610875623,199702.8908,
122,0.00665,0.00999,0.00999,0.00665,0.01015,0.01011,0.01348,0.01354,90,123,154,121,0,0.9989336545,1.359306922,-0.007438428902,199702.8004,
123,0.00665,0.00999,0.00999,0.00665,0.00677,0.00674,0.01011,0.01015,91,124,155,122,0,0.998933416,1.359341723,-0.005294919923,199702.7336,
124,0.00665,0.00999,0.00999,0.00665,0.00338,0.00337,0.00674,0.00677,92,125,156,123,0,0.9989332558,1.359363245,-0.003169201797,199702.6888,
125,0.00665,0.00999,0.00999,0.00665,0,0,0.00337,0.00338,93,126,157,124,0,0.9989331762,1.359376642,-0.001055285934,199702.6665,
126,0.00665,0.00999,0.00999,0.00665,-0.00338,-0.00337,0,0,94,-2,158,125,1,0.9989331762,1.359376642,0.001055285934,199702.6665,
127,0.00999,0.01332,0.01332,0.00999,0.10113,0.10072,0.10407,0.1045,95,128,159,-2,1,0.9990087924,1.401885905,-0.1778488448,199724.0543,
128,0.00999,0.01332,0.01332,0.00999,0.09776,0.09736,0.10072,0.10113,96,129,160,127,0,0.9990087924,1.403158004,-0.1675169218,199724.0543,
129,0.00999,0.01332,0.01332,0.00999,0.09439,0.094,0.09736,0.09776,97,130,161,128,0,0.9990004783,1.399096476,-0.1570142402,199721.7079,
130,0.00999,0.01332,0.01332,0.00999,0.09102,0.09065,0.094,0.09439,98,131,162,129,0,0.9989914958,1.393142556,-0.1452489911,199719.1666,
131,0.00999,0.01332,0.01332,0.00999,0.08765,0.08729,0.09065,0.09102,99,132,163,130,0,0.998983101,1.387146826,-0.1331999725,199716.7894,
132,0.00999,0.01332,0.01332,0.00999,0.08427,0.08393,0.08729,0.08765,100,133,164,131,0,0.9989757969,1.381862999,-0.1215779094,199714.7204,
133,0.00999,0.01332,0.01332,0.00999,0.0809,0.08057,0.08393,0.08427,101,134,165,132,0,0.9989696061,1.377511932,-0.11080248,199712.9669,
134,0.00999,0.01332,0.01332,0.00999,0.07753,0.07722,0.08057,0.0809,102,135,166,133,0,0.9989644067,1.37403758,-0.1009932722,199711.4946,
135,0.00999,0.01332,0.01332,0.00999,0.07416,0.07386,0.07722,0.07753,103,136,167,134,0,0.9989600206,1.371316934,-0.09215971559,199710.2533,
136,0.00999,0.01332,0.01332,0.00999,0.07079,0.0705,0.07386,0.07416,104,137,168,135,0,0.9989563175,1.369198922,-0.08420975267,199709.2058,
137,0.00999,0.01332,0.01332,0.00999,0.06742,0.06714,0.0705,0.07079,105,138,169,136,0,0.9989531635,1.367560553,-0.07705332003,199708.3141,
138,0.00999,0.01332,0.01332,0.00999,0.06405,0.06379,0.06714,0.06742,106,139,170,137,0,0.9989504547,1.366286262,-0.07057851732,199707.5488,
139,0.00999,0.01332,0.01332,0.00999,0.06068,0.06043,0.06379,0.06405,107,140,171,138,0,0.9989480814,1.365312875,-0.06471168481,199706.8787,
140,0.00999,0.01332,0.01332,0.00999,0.05731,0.05707,0.06043,0.06068,108,141,172,139,0,0.9989460129,1.364560727,-0.05933920685,199706.295,
141,0.00999,0.01332,0.01332,0.00999,0.05394,0.05372,0.05707,0.05731,109,142,173,140,0,0.9989441876,1.363981413,-0.05439367316,199705.7803,
142,0.00999,0.01332,0.01332,0.00999,0.05056,0.05036,0.05372,0.05394,110,143,174,141,0,0.9989425435,1.363539402,-0.04981462396,199705.3169,
143,0.00999,0.01332,0.01332,0.00999,0.04719,0.047,0.05036,0.05056,111,144,175,142,0,0.9989410838,1.363209221,-0.04555067005,199704.9058,
144,0.00999,0.01332,0.01332,0.00999,0.04382,0.04364,0.047,0.04719,112,145,176,143,0,0.9989397744,1.362961931,-0.04154812866,199704.5372,
145,0.00999,0.01332,0.01332,0.00999,0.04045,0.04029,0.04364,0.04382,113,146,177,144,0,0.9989386003,1.362773484,-0.03776409681,199704.2068,
146,0.00999,0.01332,0.01332,0.00999,0.03708,0.03693,0.04029,0.04045,114,147,178,145,0,0.9989375316,1.36264253,-0.03418139477,199703.9062,
147,0.00999,0.01332,0.01332,0.00999,0.03371,0.03357,0.03693,0.03708,115,148,179,146,0,0.9989365778,1.362549668,-0.03075507478,199703.6381,
148,0.00999,0.01332,0.01332,0.00999,0.03034,0.03022,0.03357,0.03371,116,149,180,147,0,0.9989357351,1.362483849,-0.02746683643,199703.4012,
149,0.00999,0.01332,0.01332,0.00999,0.02697,0.02686,0.03022,0.03034,117,150,181,148,0,0.9989349698,1.362445694,-0.02430218879,199703.1862,
150,0.00999,0.01332,0.01332,0.00999,0.0236,0.0235,0.02686,0.02697,118,151,182,149,0,0.9989343047,1.362424749,-0.02123343333,199702.9994,
151,0.00999,0.01332,0.01332,0.00999,0.02023,0.02014,0.0235,0.0236,119,152,183,150,0,0.9989337321,1.362412472,-0.01824667062,199702.8386,
152,0.00999,0.01332,0.01332,0.00999,0.01685,0.01679,0.02014,0.02023,120,153,184,151,0,0.9989332377,1.362405734,-0.01532701977,199702.6998,
153,0.00999,0.01332,0.01332,0.00999,0.01348,0.01343,0.01679,0.01685,121,154,185,152,0,0.998932825,1.362413375,-0.01247042936,199702.584,
154,0.00999,0.01332,0.01332,0.00999,0.01011,0.01007,0.01343,0.01348,122,155,186,153,0,0.9989325004,1.36241865,-0.009654336127,199702.4929,
155,0.00999,0.01332,0.01332,0.00999,0.00674,0.00671,0.01007,0.01011,123,156,187,154,0,0.9989322577,1.362424633,-0.00687231222,199702.4248,
156,0.00999,0.01332,0.01332,0.00999,0.00337,0.00336,0.00671,0.00674,124,157,188,155,0,0.9989320971,1.362428096,-0.004113691958,199702.3797,
157,0.00999,0.01332,0.01332,0.00999,0,0,0.00336,0.00337,125,158,189,156,0,0.9989320143,1.362431883,-0.001369843341,199702.3565,
158,0.00999,0.01332,0.01332,0.00999,-0.00337,-0.00336,0,0,126,-2,190,157,1,0.9989320143,1.362431883,0.001369843341,199702.3565,
159,0.01332,0.01665,0.01665,0.01332,0.10072,0.1003,0.10364,0.10407,127,160,191,-2,1,0.9989961667,1.411103539,-0.1819637166,199720.5626,
160,0.01332,0.01665,0.01665,0.01332,0.09736,0.09695,0.1003,0.10072,128,161,192,159,0,0.9989961667,1.412093445,-0.1741151823,199720.5626,
161,0.01332,0.01665,0.01665,0.01332,0.094,0.09361,0.09695,0.09736,129,162,193,160,0,0.9989908421,1.409060971,-0.1659612905,199719.0574,
162,0.01332,0.01665,0.01665,0.01332,0.09065,0.09027,0.09361,0.094,130,163,194,161,0,0.9989845294,1.403988463,-0.1565147613,199717.2672,
163,0.01332,0.01665,0.01665,0.01332,0.08729,0.08692,0.09027,0.09065,131,164,195,162,0,0.9989781816,1.398291831,-0.1462772557,199715.4645,
164,0.01332,0.01665,0.01665,0.01332,0.08393,0.08358,0.08692,0.08729,132,165,196,163,0,0.9989723358,1.392812198,-0.135841496,199713.8029,
165,0.01332,0.01665,0.01665,0.01332,0.08057,0.08024,0.08358,0.08393,133,166,197,164,0,0.9989671128,1.38794956,-0.1256668952,199712.3182,
166,0.01332,0.01665,0.01665,0.01332,0.07722,0.07689,0.08024,0.08057,134,167,198,165,0,0.9989625231,1.383824387,-0.1160108814,199711.0139,
167,0.01332,0.01665,0.01665,0.01332,0.07386,0.07355,0.07689,0.07722,135,168,199,166,0,0.9989585386,1.380377347,-0.1069532694,199709.8818,
168,0.01332,0.01665,0.01665,0.01332,0.0705,0.07021,0.07355,0.07386,136,169,200,167,0,0.9989550637,1.377565798,-0.09856695268,199708.8951,
169,0.01332,0.01665,0.01665,0.01332,0.06714,0.06686,0.07021,0.0705,137,170,201,168,0,0.9989520276,1.375289617,-0.09082689673,199708.0336,
170,0.01332,0.01665,0.01665,0.01332,0.06379,0.06352,0.06686,0.06714,138,171,202,169,0,0.9989493992,1.373444223,-0.08368042887,199707.2881,
171,0.01332,0.01665,0.01665,0.01332,0.06043,0.06018,0.06352,0.06379,139,172,203,170,0,0.9989470547,1.371951238,-0.07706778082,199706.6237,
172,0.01332,0.01665,0.01665,0.01332,0.05707,0.05684,0.06018,0.06043,140,173,204,171,0,0.9989449819,1.370752351,-0.0709387267,199706.0367,
173,0.01332,0.01665,0.01665,0.01332,0.05372,0.05349,0.05684,0.05707,141,174,205,172,0,0.9989431414,1.369793099,-0.06524115081,199705.5159,
174,0.01332,0.01665,0.01665,0.01332,0.05036,0.05015,0.05349,0.05372,142,175,206,173,0,0.9989414973,1.369005094,-0.05989145797,199705.0509,
175,0.01332,0.01665,0.01665,0.01332,0.047,0.04681,0.05015,0.05036,143,176,207,174,0,0.9989400126,1.368378058,-0.05487495014,199704.6313,
176,0.01332,0.01665,0.01665,0.01332,0.04364,0.04346,0.04681,0.047,144,177,208,175,0,0.9989386706,1.367880947,-0.05014164068,199704.2524,
177,0.01332,0.01665,0.01665,0.01332,0.04029,0.04012,0.04346,0.04364,145,178,209,176,0,0.9989374862,1.367478396,-0.04564577894,199703.918,
178,0.01332,0.01665,0.01665,0.01332,0.03693,0.03678,0.04012,0.04029,146,179,210,177,0,0.9989364032,1.367151989,-0.04135615543,199703.6124,
179,0.01332,0.01665,0.01665,0.01332,0.03357,0.03343,0.03678,0.03693,147,180,211,178,0,0.9989354254,1.366898106,-0.03724923802,199703.3367,
180,0.01332,0.01665,0.01665,0.01332,0.03022,0.03009,0.03343,0.03357,148,181,212,179,0,0.9989345756,1.366694142,-0.03329593399,199703.0972,
181,0.01332,0.01665,0.01665,0.01332,0.02686,0.02675,0.03009,0.03022,149,182,213,180,0,0.9989338025,1.36653054,-0.02947420959,199702.8793,
182,0.01332,0.01665,0.01665,0.01332,0.0235,0.0234,0.02675,0.02686,150,183,214,181,0,0.9989331207,1.366408054,-0.02576646759,199702.6873,
183,0.01332,0.01665,0.01665,0.01332,0.02014,0.02006,0.0234,0.0235,151,184,215,182,0,0.998932542,1.36630916,-0.02215025658,199702.5244,
184,0.01332,0.01665,0.01665,0.01332,0.01679,0.01672,0.02006,0.02014,152,185,216,183,0,0.9989320444,1.366236441,-0.01861828166,199702.3843,
185,0.01332,0.01665,0.01665,0.01332,0.01343,0.01337,0.01672,0.01679,153,186,217,184,0,0.9989316274,1.366180115,-0.01514881661,199702.2669,
186,0.01332,0.01665,0.01665,0.01332,0.01007,0.01003,0.01337,0.01343,154,187,218,185,0,0.9989313007,1.366138902,-0.0117295271,199702.175,
187,0.01332,0.01665,0.01665,0.01332,0.00671,0.00669,0.01003,0.01007,155,188,219,186,0,0.9989310546,1.366112007,-0.008351119826,199702.1057,
188,0.01332,0.01665,0.01665,0.01332,0.00336,0.00334,0.00669,0.00671,156,189,220,187,0,0.9989308886,1.366099501,-0.005000508932,199702.0591,
189,0.01332,0.01665,0.01665,0.01332,0,0,0.00334,0.00336,157,190,221,188,0,0.9989308104,1.366086421,-0.001664554688,199702.037,
190,0.01332,0.01665,0.01665,0.01332,-0.00336,-0.00334,0,0,158,-2,222,189,1,0.9989308104,1.366086421,0.001664554688,199702.037,
191,0.01665,0.01999,0.01999,0.01665,0.1003,0.09987,0.1032,0.10364,159,192,223,-2,1,0.9989866477,1.418712603,-0.1859033753,199717.9334,
192,0.01665,0.01999,0.01999,0.01665,0.09695,0.09654,0.09987,0.1003,160,193,224,191,0,0.9989866477,1.419536988,-0.1795000151,199717.9334,
193,0.01665,0.01999,0.01999,0.01665,0.09361,0.09321,0.09654,0.09695,161,194,225,192,0,0.9989828959,1.41736242,-0.1726160597,199716.8721,
194,0.01665,0.01999,0.01999,0.01665,0.09027,0.08988,0.09321,0.09361,162,195,226,193,0,0.9989782011,1.413193376,-0.1646354427,199715.5386,
195,0.01665,0.01999,0.01999,0.01665,0.08692,0.08655,0.08988,0.09027,163,196,227,194,0,0.9989732858,1.408084543,-0.1557989325,199714.1393,
196,0.01665,0.01999,0.01999,0.01665,0.08358,0.08322,0.08655,0.08692,164,197,228,195,0,0.9989685529,1.402832633,-0.1465067343,199712.7904,
197,0.01665,0.01999,0.01999,0.01665,0.08024,0.0799,0.08322,0.08358,165,198,229,196,0,0.9989641778,1.39786691,-0.1371067343,199711.5426,
198,0.01665,0.01999,0.01999,0.01665,0.07689,0.07657,0.0799,0.08024,166,199,230,197,0,0.9989601672,1.393423742,-0.1278694003,199710.399,
199,0.01665,0.01999,0.01999,0.01665,0.07355,0.07324,0.07657,0.07689,167,200,231,198,0,0.9989565993,1.389560765,-0.1189639402,199709.3818,
200,0.01665,0.01999,0.01999,0.01665,0.07021,0.06991,0.07324,0.07355,168,201,232,199,0,0.9989534019,1.386262999,-0.1104817931,199708.4707,
201,0.01665,0.01999,0.01999,0.01665,0.06686,0.06658,0.06991,0.07021,169,202,233,200,0,0.9989505482,1.383478548,-0.1024566971,199707.658,
202,0.01665,0.01999,0.01999,0.01665,0.06352,0.06325,0.06658,0.06686,170,203,234,201,0,0.9989480239,1.381160609,-0.09491730022,199706.9396,
203,0.01665,0.01999,0.01999,0.01665,0.06018,0.05992,0.06325,0.06352,171,204,235,202,0,0.9989457539,1.379224496,-0.08782421759,199706.294,
204,0.01665,0.01999,0.01999,0.01665,0.05684,0.05659,0.05992,0.06018,172,205,236,203,0,0.9989437313,1.377611641,-0.08114920041,199705.7192,
205,0.01665,0.01999,0.01999,0.01665,0.05349,0.05326,0.05659,0.05684,173,206,237,204,0,0.9989419019,1.376273442,-0.07485606511,199705.1997,
206,0.01665,0.01999,0.01999,0.01665,0.05015,0.04993,0.05326,0.05349,174,207,238,205,0,0.998940271,1.375164857,-0.06891566523,199704.7369,
207,0.01665,0.01999,0.01999,0.01665,0.04681,0.04661,0.04993,0.05015,175,208,239,206,0,0.9989387994,1.374241545,-0.06328386308,199704.3196,
208,0.01665,0.01999,0.01999,0.01665,0.04346,0.04328,0.04661,0.04681,176,209,240,207,0,0.9989374523,1.373478368,-0.05792873973,199703.9379,
209,0.01665,0.01999,0.01999,0.01665,0.04012,0.03995,0.04328,0.04346,177,210,241,208,0,0.9989362559,1.372853291,-0.05282158639,199703.5991,
210,0.01665,0.01999,0.01999,0.01665,0.03678,0.03662,0.03995,0.04012,178,211,242,209,0,0.9989351774,1.37232793,-0.04792364771,199703.2938,
211,0.01665,0.01999,0.01999,0.01665,0.03343,0.03329,0.03662,0.03678,179,212,243,210,0,0.9989341935,1.371893445,-0.04320775546,199703.0155,
212,0.01665,0.01999,0.01999,0.01665,0.03009,0.02996,0.03329,0.03343,180,213,244,211,0,0.9989333342,1.371540164,-0.03866002939,199702.7725,
213,0.01665,0.01999,0.01999,0.01665,0.02675,0.02663,0.02996,0.03009,181,214,245,212,0,0.9989325617,1.371246942,-0.03425172129,199702.5542,
214,0.01665,0.01999,0.01999,0.01665,0.0234,0.0233,0.02663,0.02675,182,215,246,213,0,0.998931875,1.371006701,-0.02995887071,199702.3602,
215,0.01665,0.01999,0.01999,0.01665,0.02006,0.01997,0.0233,0.0234,183,216,247,214,0,0.9989312933,1.370816558,-0.02577154108,199702.196,
216,0.01665,0.01999,0.01999,0.01665,0.01672,0.01664,0.01997,0.02006,184,217,248,215,0,0.9989307939,1.370663327,-0.02166988997,199702.055,
217,0.01665,0.01999,0.01999,0.01665,0.01337,0.01332,0.01664,0.01672,185,218,249,216,0,0.9989303817,1.370536254,-0.01763558267,199701.9386,
218,0.01665,0.01999,0.01999,0.01665,0.01003,0.00999,0.01332,0.01337,186,219,250,217,0,0.9989300466,1.370450984,-0.01366191192,199701.8441,
219,0.01665,0.01999,0.01999,0.01665,0.00669,0.00666,0.00999,0.01003,187,220,251,218,0,0.9989298039,1.370385596,-0.009728715576,199701.7756,
220,0.01665,0.01999,0.01999,0.01665,0.00334,0.00333,0.00666,0.00669,188,221,252,219,0,0.9989296353,1.370342237,-0.00582476455,199701.728,
221,0.01665,0.01999,0.01999,0.01665,0,0,0.00333,0.00334,189,222,253,220,0,0.9989295585,1.370322704,-0.001939179962,199701.7064,
222,0.01665,0.01999,0.01999,0.01665,-0.00334,-0.00333,0,0,190,-2,254,221,1,0.9989295585,1.370322704,0.001939179962,199701.7064,
223,0.01999,0.02332,0.02332,0.01999,0.09987,0.09943,0.10275,0.1032,191,224,255,-2,1,0.9989805667,1.42556381,-0.1924913524,199716.2643,
224,0.01999,0.02332,0.02332,0.01999,0.09654,0.09612,0.09943,0.09987,192,225,256,223,0,0.9989805667,1.426636121,-0.1843759058,199716.2643,
225,0.01999,0.02332,0.02332,0.01999,0.09321,0.09281,0.09612,0.09654,193,226,257,224,0,0.9989765073,1.42491059,-0.1778005098,199715.1187,
226,0.01999,0.02332,0.02332,0.01999,0.08988,0.08949,0.09281,0.09321,194,227,258,225,0,0.9989724752,1.421388432,-0.1706607104,199713.9735,
227,0.01999,0.02332,0.02332,0.01999,0.08655,0.08618,0.08949,0.08988,195,228,259,226,0,0.9989684687,1.416861722,-0.1628464757,199712.8311,
228,0.01999,0.02332,0.02332,0.01999,0.08322,0.08286,0.08618,0.08655,196,229,260,227,0,0.9989645482,1.411986506,-0.1545149932,199711.7112,
229,0.01999,0.02332,0.02332,0.01999,0.0799,0.07955,0.08286,0.08322,197,230,261,228,0,0.9989608529,1.407171446,-0.1458934486,199710.6545,
230,0.01999,0.02332,0.02332,0.01999,0.07657,0.07623,0.07955,0.0799,198,231,262,229,0,0.9989573651,1.402666908,-0.137194007,199709.657,