'cellnumber','cornerlocs_x','cornerlocs_y','adjacent_cells','edge_state','initial_conditions'
1,-0.00335,-1e-05,-1e-05,-0.00335,0.09926,0.09889,0.1023,0.10268,-2,2,32,-2,3,1,1,0,210000,
2,-0.00335,-1e-05,-1e-05,-0.00335,0.09584,0.09548,0.09889,0.09926,-2,3,33,1,3,1,1,0,210000,
3,-0.00335,-1e-05,-1e-05,-0.00335,0.09241,0.09207,0.09548,0.09584,-2,4,34,2,3,1,1,0,210000,
4,-0.00335,-1e-05,-1e-05,-0.00335,0.08899,0.08866,0.09207,0.09241,-2,5,35,3,3,1,1,0,210000,
5,-0.00335,-1e-05,-1e-05,-0.00335,0.08557,0.08525,0.08866,0.08899,-2,6,36,4,3,1,1,0,210000,
6,-0.00335,-1e-05,-1e-05,-0.00335,0.08214,0.08184,0.08525,0.08557,-2,7,37,5,3,1,1,0,210000,
7,-0.00335,-1e-05,-1e-05,-0.00335,0.07872,0.07843,0.08184,0.08214,-2,8,38,6,3,1,1,0,210000,
8,-0.00335,-1e-05,-1e-05,-0.00335,0.0753,0.07502,0.07843,0.07872,-2,9,39,7,3,1,1,0,210000,
9,-0.00335,-1e-05,-1e-05,-0.00335,0.07188,0.07161,0.07502,0.0753,-2,10,40,8,3,1,1,0,210000,
10,-0.00335,-1e-05,-1e-05,-0.00335,0.06845,0.0682,0.07161,0.07188,-2,11,41,9,3,1,1,0,210000,
11,-0.00335,-1e-05,-1e-05,-0.00335,0.06503,0.06479,0.0682,0.06845,-2,12,42,10,3,1,1,0,210000,
12,-0.00335,-1e-05,-1e-05,-0.00335,0.06161,0.06138,0.06479,0.06503,-2,13,43,11,3,1,1,0,210000,
13,-0.00335,-1e-05,-1e-05,-0.00335,0.05819,0.05797,0.06138,0.06161,-2,14,44,12,3,1,1,0,210000,
14,-0.00335,-1e-05,-1e-05,-0.00335,0.05476,0.05456,0.05797,0.05819,-2,15,45,13,3,1,1,0,210000,
15,-0.00335,-1e-05,-1e-05,-0.00335,0.05134,0.05115,0.05456,0.05476,-2,16,46,14,3,1,1,0,210000,
16,-0.00335,-1e-05,-1e-05,-0.00335,0.04792,0.04774,0.05115,0.05134,-2,17,47,15,3,1,1,0,210000,
17,-0.00335,-1e-05,-1e-05,-0.00335,0.0445,0.04433,0.04774,0.04792,-2,18,48,16,3,1,1,0,210000,
18,-0.00335,-1e-05,-1e-05,-0.00335,0.04107,0.04092,0.04433,0.0445,-2,19,49,17,3,1,1,0,210000,
19,-0.00335,-1e-05,-1e-05,-0.00335,0.03765,0.03751,0.04092,0.04107,-2,20,50,18,3,1,1,0,210000,
20,-0.00335,-1e-05,-1e-05,-0.00335,0.03423,0.0341,0.03751,0.03765,-2,21,51,19,3,1,1,0,210000,
21,-0.00335,-1e-05,-1e-05,-0.00335,0.0308,0.03069,0.0341,0.03423,-2,22,52,20,3,1,1,0,210000,
22,-0.00335,-1e-05,-1e-05,-0.00335,0.02738,0.02728,0.03069,0.0308,-2,23,53,21,3,1,1,0,210000,
23,-0.00335,-1e-05,-1e-05,-0.00335,0.02396,0.02387,0.02728,0.02738,-2,24,54,22,3,1,1,0,210000,
24,-0.00335,-1e-05,-1e-05,-0.00335,0.02054,0.02046,0.02387,0.02396,-2,25,55,23,3,1,1,0,210000,
25,-0.00335,-1e-05,-1e-05,-0.00335,0.01711,0.01705,0.02046,0.02054,-2,26,56,24,3,1,1,0,210000,
26,-0.00335,-1e-05,-1e-05,-0.00335,0.01369,0.01364,0.01705,0.01711,-2,27,57,25,3,1,1,0,210000,
27,-0.00335,-1e-05,-1e-05,-0.00335,0.01027,0.01023,0.01364,0.01369,-2,28,58,26,3,1,1,0,210000,
28,-0.00335,-1e-05,-1e-05,-0.00335,0.00685,0.00682,0.01023,0.01027,-2,29,59,27,3,1,1,0,210000,
29,-0.00335,-1e-05,-1e-05,-0.00335,0.00342,0.00341,0.00682,0.00685,-2,30,60,28,3,1,1,0,210000,
30,-0.00335,-1e-05,-1e-05,-0.00335,0,0,0.00341,0.00342,-2,-2,61,29,3,1,1,0,210000,
31,-1e-05,0.00332,0.00332,-1e-05,0.1023,0.10192,0.10532,0.10571,-2,32,63,-2,1,0.956095,5.95685,0.0188654,205726,
32,-1e-05,0.00332,0.00332,-1e-05,0.09889,0.09852,0.10192,0.1023,1,33,64,31,0,0.956095,5.95685,-0.0188654,205726,
33,-1e-05,0.00332,0.00332,-1e-05,0.09548,0.09513,0.09852,0.09889,2,34,65,32,0,0.977906,6.03612,-7.05697e-05,205698,
34,-1e-05,0.00332,0.00332,-1e-05,0.09207,0.09173,0.09513,0.09548,3,35,66,33,0,0.955788,5.94158,0.0182136,205725,
35,-1e-05,0.00332,0.00332,-1e-05,0.08866,0.08833,0.09173,0.09207,4,36,67,34,0,0.973002,5.98715,0.0300237,205690,
36,-1e-05,0.00332,0.00332,-1e-05,0.08525,0.08494,0.08833,0.08866,5,37,68,35,0,0.971106,6.01458,0.0791773,205688,
37,-1e-05,0.00332,0.00332,-1e-05,0.08184,0.08154,0.08494,0.08525,6,38,69,36,0,0.955824,5.95118,0.0980974,205730,
38,-1e-05,0.00332,0.00332,-1e-05,0.07843,0.07814,0.08154,0.08184,7,39,70,37,0,0.954327,5.93669,0.052192,205730,
39,-1e-05,0.00332,0.00332,-1e-05,0.07502,0.07474,0.07814,0.07843,8,40,71,38,0,0.958452,5.96412,0.0503307,205654,
40,-1e-05,0.00332,0.00332,-1e-05,0.07161,0.07135,0.07474,0.07502,9,41,72,39,0,0.972578,6.02401,0.0652431,205676,
41,-1e-05,0.00332,0.00332,-1e-05,0.0682,0.06795,0.07135,0.07161,10,42,73,40,0,0.953505,5.94825,0.0612789,205722,
42,-1e-05,0.00332,0.00332,-1e-05,0.06479,0.06455,0.06795,0.0682,11,43,74,41,0,0.958288,5.96301,0.00648433,205721,
43,-1e-05,0.00332,0.00332,-1e-05,0.06138,0.06115,0.06455,0.06479,12,44,75,42,0,0.959673,5.95016,-0.0150402,205737,
44,-1e-05,0.00332,0.00332,-1e-05,0.05797,0.05776,0.06115,0.06138,13,45,76,43,0,0.953872,5.93477,-0.0443598,205712,
45,-1e-05,0.00332,0.00332,-1e-05,0.05456,0.05436,0.05776,0.05797,14,46,77,44,0,0.956937,5.96817,-0.0831445,205720,
46,-1e-05,0.00332,0.00332,-1e-05,0.05115,0.05096,0.05436,0.05456,15,47,78,45,0,0.978442,6.04922,-0.0337715,205672,
47,-1e-05,0.00332,0.00332,-1e-05,0.04774,0.04756,0.05096,0.05115,16,48,79,46,0,0.973455,6.02673,0.0380823,205687,
48,-1e-05,0.00332,0.00332,-1e-05,0.04433,0.04417,0.04756,0.04774,17,49,80,47,0,0.958039,5.97219,0.0734858,205750,
49,-1e-05,0.00332,0.00332,-1e-05,0.04092,0.04077,0.04417,0.04433,18,50,81,48,0,0.949712,5.91916,0.0365896,205726,
50,-1e-05,0.00332,0.00332,-1e-05,0.03751,0.03737,0.04077,0.04092,19,51,82,49,0,0.956246,5.96411,-0.00957927,205690,
51,-1e-05,0.00332,0.00332,-1e-05,0.0341,0.03397,0.03737,0.03751,20,52,83,50,0,0.958328,5.97278,-0.0459274,205633,
52,-1e-05,0.00332,0.00332,-1e-05,0.03069,0.03058,0.03397,0.0341,21,53,84,51,0,0.973485,6.02912,-0.0169882,205668,
53,-1e-05,0.00332,0.00332,-1e-05,0.02728,0.02718,0.03058,0.03069,22,54,85,52,0,0.958358,5.97328,0.0025058,205717,
54,-1e-05,0.00332,0.00332,-1e-05,0.02387,0.02378,0.02718,0.02728,23,55,86,53,0,0.975045,6.03606,0.0275663,205688,
55,-1e-05,0.00332,0.00332,-1e-05,0.02046,0.02038,0.02378,0.02387,24,56,87,54,0,0.958064,5.97023,0.0451421,205724,
56,-1e-05,0.00332,0.00332,-1e-05,0.01705,0.01699,0.02038,0.02046,25,57,88,55,0,0.95921,5.99399,-0.0186047,205709,
57,-1e-05,0.00332,0.00332,-1e-05,0.01364,0.01359,0.01699,0.01705,26,58,89,56,0,0.96372,5.98543,-0.0201041,205685,
58,-1e-05,0.00332,0.00332,-1e-05,0.01023,0.01019,0.01359,0.01364,27,59,90,57,0,0.956048,5.97095,-0.053708,205705,
59,-1e-05,0.00332,0.00332,-1e-05,0.00682,0.00679,0.01019,0.01023,28,60,91,58,0,0.974001,6.05656,-0.0264704,205656,
60,-1e-05,0.00332,0.00332,-1e-05,0.00341,0.0034,0.00679,0.00682,29,61,92,59,0,0.972581,6.05567,0.017313,205709,
61,-1e-05,0.00332,0.00332,-1e-05,0,0,0.0034,0.00341,30,62,93,60,0,0.9569,5.9921,0.0110522,205706,
62,-1e-05,0.00332,0.00332,-1e-05,-0.00341,-0.0034,0,0,-2,-2,94,61,1,0.9569,5.9921,-0.0110522,205706,
63,0.00332,0.00665,0.00665,0.00332,0.10192,0.10153,0.10492,0.10532,31,64,95,-2,1,0.955904,5.96753,-0.000658674,205735,
64,0.00332,0.00665,0.00665,0.00332,0.09852,0.09815,0.10153,0.10192,32,65,96,63,0,0.955904,5.96753,0.000658674,205735,
65,0.00332,0.00665,0.00665,0.00332,0.09513,0.09476,0.09815,0.09852,33,66,97,64,0,0.98069,6.0117,0.0115088,205735,
66,0.00332,0.00665,0.00665,0.00332,0.09173,0.09138,0.09476,0.09513,34,67,98,65,0,0.955608,5.94557,0.0177654,205746,
67,0.00332,0.00665,0.00665,0.00332,0.08833,0.08799,0.09138,0.09173,35,68,99,66,0,0.973211,5.92584,0.00732103,205734,
68,0.00332,0.00665,0.00665,0.00332,0.08494,0.08461,0.08799,0.08833,36,69,100,67,0,0.97108,5.98188,0.0175575,205723,
69,0.00332,0.00665,0.00665,0.00332,0.08154,0.08122,0.08461,0.08494,37,70,101,68,0,0.955656,5.95897,0.0438283,205758,
70,0.00332,0.00665,0.00665,0.00332,0.07814,0.07784,0.08122,0.08154,38,71,102,69,0,0.95383,5.94369,0.0325379,205752,
71,0.00332,0.00665,0.00665,0.00332,0.07474,0.07446,0.07784,0.07814,39,72,103,70,0,0.958364,5.95733,0.0108203,205743,
72,0.00332,0.00665,0.00665,0.00332,0.07135,0.07107,0.07446,0.07474,40,73,104,71,0,0.972874,5.99107,0.0316803,205738,
73,0.00332,0.00665,0.00665,0.00332,0.06795,0.06769,0.07107,0.07135,41,74,105,72,0,0.951651,5.95585,0.0514577,205746,
74,0.00332,0.00665,0.00665,0.00332,0.06455,0.0643,0.06769,0.06795,42,75,106,73,0,0.958249,5.97146,0.0466713,205740,
75,0.00332,0.00665,0.00665,0.00332,0.06115,0.06092,0.0643,0.06455,43,76,107,74,0,0.959365,5.92335,0.0461573,205728,
76,0.00332,0.00665,0.00665,0.00332,0.05776,0.05753,0.06092,0.06115,44,77,108,75,0,0.953576,5.93799,0.0277553,205797,
77,0.00332,0.00665,0.00665,0.00332,0.05436,0.05415,0.05753,0.05776,45,78,109,76,0,0.956714,5.97393,0.0150379,205726,
78,0.00332,0.00665,0.00665,0.00332,0.05096,0.05077,0.05415,0.05436,46,79,110,77,0,1.00148,6.14212,0.0339897,205718,
79,0.00332,0.00665,0.00665,0.00332,0.04756,0.04738,0.05077,0.05096,47,80,111,78,0,0.974274,5.99214,0.0496352,205721,
80,0.00332,0.00665,0.00665,0.00332,0.04417,0.044,0.04738,0.04756,48,81,112,79,0,0.957754,5.98155,0.0680025,205761,
81,0.00332,0.00665,0.00665,0.00332,0.04077,0.04061,0.044,0.04417,49,82,113,80,0,0.945375,5.91283,0.0373919,205726,
82,0.00332,0.00665,0.00665,0.00332,0.03737,0.03723,0.04061,0.04077,50,83,114,81,0,0.955702,5.96665,0.0339,205727,
83,0.00332,0.00665,0.00665,0.00332,0.03397,0.03384,0.03723,0.03737,51,84,115,82,0,0.958196,5.97045,0.0346476,205718,
84,0.00332,0.00665,0.00665,0.00332,0.03058,0.03046,0.03384,0.03397,52,85,116,83,0,0.973581,6.00017,0.048581,205720,
85,0.00332,0.00665,0.00665,0.00332,0.02718,0.02707,0.03046,0.03058,53,86,117,84,0,0.958113,5.98224,0.0669517,205725,
86,0.00332,0.00665,0.00665,0.00332,0.02378,0.02369,0.02707,0.02718,54,87,118,85,0,0.975104,6.0012,0.0848478,205724,
87,0.00332,0.00665,0.00665,0.00332,0.02038,0.02031,0.02369,0.02378,55,88,119,86,0,0.958055,5.97863,0.0822612,205728,
88,0.00332,0.00665,0.00665,0.00332,0.01699,0.01692,0.02031,0.02038,56,89,120,87,0,0.959158,5.99945,0.0792045,205707,
89,0.00332,0.00665,0.00665,0.00332,0.01359,0.01354,0.01692,0.01699,57,90,121,88,0,0.916955,5.69776,0.0538611,205724,
90,0.00332,0.00665,0.00665,0.00332,0.01019,0.01015,0.01354,0.01359,58,91,122,89,0,0.95569,5.98282,-0.0066105,205756,
91,0.00332,0.00665,0.00665,0.00332,0.00679,0.00677,0.01015,0.01019,59,92,123,90,0,0.974035,6.01279,-0.0109559,205689,
92,0.00332,0.00665,0.00665,0.00332,0.0034,0.00338,0.00677,0.00679,60,93,124,91,0,0.97279,6.01818,0.00771979,205705,
93,0.00332,0.00665,0.00665,0.00332,0,0,0.00338,0.0034,61,94,125,92,0,0.956627,5.99622,0.0161208,205727,
94,0.00332,0.00665,0.00665,0.00332,-0.0034,-0.00338,0,0,62,-2,126,93,1,0.956627,5.99622,-0.0161208,205727,
95,0.00665,0.00999,0.00999,0.00665,0.10153,0.10113,0.1045,0.10492,63,96,127,-2,1,0.968177,5.96722,0.0065119,205783,
96,0.00665,0.00999,0.00999,0.00665,0.09815,0.09776,0.10113,0.10153,64,97,128,95,0,0.968177,5.96722,-0.0065119,205783,
97,0.00665,0.00999,0.00999,0.00665,0.09476,0.09439,0.09776,0.09815,65,98,129,96,0,0.961713,5.83147,0.0041964,205773,
98,0.00665,0.00999,0.00999,0.00665,0.09138,0.09102,0.09439,0.09476,66,99,130,97,0,0.9678,5.94847,0.0134558,205786,
99,0.00665,0.00999,0.00999,0.00665,0.08799,0.08765,0.09102,0.09138,67,100,131,98,0,0.957447,5.76259,-0.015207,205778,
100,0.00665,0.00999,0.00999,0.00665,0.08461,0.08427,0.08765,0.08799,68,101,132,99,0,0.96604,5.88464,-0.00851272,205762,
101,0.00665,0.00999,0.00999,0.00665,0.08122,0.0809,0.08427,0.08461,69,102,133,100,0,0.963362,5.92954,0.00833282,205784,
102,0.00665,0.00999,0.00999,0.00665,0.07784,0.07753,0.0809,0.08122,70,103,134,101,0,0.954157,5.9177,0.0144624,205801,
103,0.00665,0.00999,0.00999,0.00665,0.07446,0.07416,0.07753,0.07784,71,104,135,102,0,0.964354,5.94387,0.0138515,205792,
104,0.00665,0.00999,0.00999,0.00665,0.07107,0.07079,0.07416,0.07446,72,105,136,103,0,0.965408,5.87355,0.0115705,205782,
105,0.00665,0.00999,0.00999,0.00665,0.06769,0.06742,0.07079,0.07107,73,106,137,104,0,0.974905,6.02367,0.00828266,205785,
106,0.00665,0.00999,0.00999,0.00665,0.0643,0.06405,0.06742,0.06769,74,107,138,105,0,0.966739,5.96264,0.0114947,205780,
107,0.00665,0.00999,0.00999,0.00665,0.06092,0.06068,0.06405,0.0643,75,108,139,106,0,0.966624,5.88238,0.0147781,205787,
108,0.00665,0.00999,0.00999,0.00665,0.05753,0.05731,0.06068,0.06092,76,109,140,107,0,0.953478,5.8885,-0.0196019,205767,
109,0.00665,0.00999,0.00999,0.00665,0.05415,0.05394,0.05731,0.05753,77,110,141,108,0,0.966217,5.9809,-0.0455716,205776,
110,0.00665,0.00999,0.00999,0.00665,0.05077,0.05056,0.05394,0.05415,78,111,142,109,0,0.948618,5.77796,-0.0234048,205756,
111,0.00665,0.00999,0.00999,0.00665,0.04738,0.04719,0.05056,0.05077,79,112,143,110,0,0.953072,5.81064,-0.0186268,205757,
112,0.00665,0.00999,0.00999,0.00665,0.044,0.04382,0.04719,0.04738,80,113,144,111,0,0.957869,5.91772,-0.0193099,205773,
113,0.00665,0.00999,0.00999,0.00665,0.04061,0.04045,0.04382,0.044,81,114,145,112,0,0.945683,5.87865,-0.0255374,205758,
114,0.00665,0.00999,0.00999,0.00665,0.03723,0.03708,0.04045,0.04061,82,115,146,113,0,0.973234,6.01206,-0.0484608,205762,
115,0.00665,0.00999,0.00999,0.00665,0.03384,0.03371,0.03708,0.03723,83,116,147,114,0,0.966294,5.96849,-0.0653314,205771,
116,0.00665,0.00999,0.00999,0.00665,0.03046,0.03034,0.03371,0.03384,84,117,148,115,0,0.963097,5.88337,-0.0506312,205755,
117,0.00665,0.00999,0.00999,0.00665,0.02707,0.02697,0.03034,0.03046,85,118,149,116,0,0.967954,5.97147,-0.0372765,205759,
118,0.00665,0.00999,0.00999,0.00665,0.02369,0.0236,0.02697,0.02707,86,119,150,117,0,0.969173,5.89708,-0.0212063,205751,
119,0.00665,0.00999,0.00999,0.00665,0.02031,0.02023,0.0236,0.02369,87,120,151,118,0,0.96464,5.93693,-0.016792,205754,
120,0.00665,0.00999,0.00999,0.00665,0.01692,0.01685,0.02023,0.02031,88,121,152,119,0,0.964966,5.95801,-0.012592,205738,
121,0.00665,0.00999,0.00999,0.00665,0.01354,0.01348,0.01685,0.01692,89,122,153,120,0,0.874271,5.42055,-0.0121026,205743,
122,0.00665,0.00999,0.00999,0.00665,0.01015,0.01011,0.01348,0.01354,90,123,154,121,0,0.955827,5.93815,-0.036712,205742,
123,0.00665,0.00999,0.00999,0.00665,0.00677,0.00674,0.01011,0.01015,91,124,155,122,0,0.968312,5.91837,-0.0293533,205711,
124,0.00665,0.00999,0.00999,0.00665,0.00338,0.00337,0.00674,0.00677,92,125,156,123,0,0.967378,5.91071,-0.0123706,205710,
125,0.00665,0.00999,0.00999,0.00665,0,0,0.00337,0.00338,93,126,157,124,0,0.956703,5.93844,-0.00214691,205735,
126,0.00665,0.00999,0.00999,0.00665,-0.00338,-0.00337,0,0,94,-2,158,125,1,0.956703,5.93844,0.00214691,205735,
127,0.00999,0.01332,0.01332,0.00999,0.10113,0.10072,0.10407,0.1045,95,128,159,-2,1,0.961713,5.85235,-0.00409613,205818,
128,0.00999,0.01332,0.01332,0.00999,0.09776,0.09736,0.10072,0.10113,96,129,160,127,0,0.961713,5.85235,0.00409613,205818,
129,0.00999,0.01332,0.01332,0.00999,0.09439,0.094,0.09736,0.09776,97,130,161,128,0,0.96349,5.76061,0.0120067,205816,
130,0.00999,0.01332,0.01332,0.00999,0.09102,0.09065,0.094,0.09439,98,131,162,129,0,0.957845,5.80709,0.0173933,205822,
131,0.00999,0.01332,0.01332,0.00999,0.08765,0.08729,0.09065,0.09102,99,132,163,130,0,0.992163,5.8861,0.0130537,205826,
132,0.00999,0.01332,0.01332,0.00999,0.08427,0.08393,0.08729,0.08765,100,133,164,131,0,0.976652,5.86111,0.00505799,205821,
133,0.00999,0.01332,0.01332,0.00999,0.0809,0.08057,0.08393,0.08427,101,134,165,132,0,0.958077,5.8011,0.00547427,205824,
134,0.00999,0.01332,0.01332,0.00999,0.07753,0.07722,0.08057,0.0809,102,135,166,133,0,0.962453,5.8628,0.00952652,205827,
135,0.00999,0.01332,0.01332,0.00999,0.07416,0.07386,0.07722,0.07753,103,136,167,134,0,0.963315,5.84457,0.0111596,205831,
136,0.00999,0.01332,0.01332,0.00999,0.07079,0.0705,0.07386,0.07416,104,137,168,135,0,0.982416,5.8881,-0.000440058,205820,
137,0.00999,0.01332,0.01332,0.00999,0.06742,0.06714,0.0705,0.07079,105,138,169,136,0,0.949947,5.78604,-0.00380671,205816,
138,0.00999,0.01332,0.01332,0.00999,0.06405,0.06379,0.06714,0.06742,106,139,170,137,0,0.963711,5.85324,0.000123729,205805,
139,0.00999,0.01332,0.01332,0.00999,0.06068,0.06043,0.06379,0.06405,107,140,171,138,0,0.956571,5.73421,-0.00114837,205822,
140,0.00999,0.01332,0.01332,0.00999,0.05731,0.05707,0.06043,0.06068,108,141,172,139,0,0.953955,5.84586,-0.0300588,205831,
141,0.00999,0.01332,0.01332,0.00999,0.05394,0.05372,0.05707,0.05731,109,142,173,140,0,0.962511,5.8993,-0.033637,205817,
142,0.00999,0.01332,0.01332,0.00999,0.05056,0.05036,0.05372,0.05394,110,143,174,141,0,0.948679,5.72172,-0.0124727,205809,
143,0.00999,0.01332,0.01332,0.00999,0.04719,0.047,0.05036,0.05056,111,144,175,142,0,1.00523,6.07179,-0.00907973,205803,
144,0.00999,0.01332,0.01332,0.00999,0.04382,0.04364,0.047,0.04719,112,145,176,143,0,0.957794,5.82015,-0.00587099,205806,
145,0.00999,0.01332,0.01332,0.00999,0.04045,0.04029,0.04364,0.04382,113,146,177,144,0,0.945551,5.8095,-0.0249455,205791,
146,0.00999,0.01332,0.01332,0.00999,0.03708,0.03693,0.04029,0.04045,114,147,178,145,0,0.959664,5.8537,-0.0523797,205811,
147,0.00999,0.01332,0.01332,0.00999,0.03371,0.03357,0.03693,0.03708,115,148,179,146,0,0.964808,5.87706,-0.0436498,205814,
148,0.00999,0.01332,0.01332,0.00999,0.03034,0.03022,0.03357,0.03371,116,149,180,147,0,0.964131,5.8187,-0.0247004,205805,
149,0.00999,0.01332,0.01332,0.00999,0.02697,0.02686,0.03022,0.03034,117,150,181,148,0,0.96308,5.86659,-0.0134087,205801,
150,0.00999,0.01332,0.01332,0.00999,0.0236,0.0235,0.02686,0.02697,118,151,182,149,0,0.977369,5.86537,-0.0181103,205801,
151,0.00999,0.01332,0.01332,0.00999,0.02023,0.02014,0.0235,0.0236,119,152,183,150,0,0.961351,5.82495,-0.013544,205796,
152,0.00999,0.01332,0.01332,0.00999,0.01685,0.01679,0.02014,0.02023,120,153,184,151,0,0.96334,5.87472,-0.00623239,205786,
153,0.00999,0.01332,0.01332,0.00999,0.01348,0.01343,0.01679,0.01685,121,154,185,152,0,1.09653,6.70087,-0.00916157,205802,
154,0.00999,0.01332,0.01332,0.00999,0.01011,0.01007,0.01343,0.01348,122,155,186,153,0,0.956161,5.87947,-0.0213388,205781,
155,0.00999,0.01332,0.01332,0.00999,0.00674,0.00671,0.01007,0.01011,123,156,187,154,0,0.970509,5.86681,-0.0117803,205774,
156,0.00999,0.01332,0.01332,0.00999,0.00337,0.00336,0.00671,0.00674,124,157,188,155,0,0.969157,5.85723,0.000872724,205775,
157,0.00999,0.01332,0.01332,0.00999,0,0,0.00336,0.00337,125,158,189,156,0,0.965471,5.91386,0.00206273,205778,
158,0.00999,0.01332,0.01332,0.00999,-0.00337,-0.00336,0,0,126,-2,190,157,1,0.965471,5.91386,-0.00206273,205778,
159,0.01332,0.01665,0.01665,0.01332,0.10072,0.1003,0.10364,0.10407,127,160,191,-2,1,0.963936,5.77211,-0.00410694,205862,
160,0.01332,0.01665,0.01665,0.01332,0.09736,0.09695,0.1003,0.10072,128,161,192,159,0,0.963936,5.77211,0.00410694,205862,
161,0.01332,0.01665,0.01665,0.01332,0.094,0.09361,0.09695,0.09736,129,162,193,160,0,0.958598,5.65199,0.0158803,205862,
162,0.01332,0.01665,0.01665,0.01332,0.09065,0.09027,0.09361,0.094,130,163,194,161,0,0.958889,5.72475,0.023206,205877,
163,0.01332,0.01665,0.01665,0.01332,0.08729,0.08692,0.09027,0.09065,131,164,195,162,0,0.938539,5.49345,0.0022181,205924,
164,0.01332,0.01665,0.01665,0.01332,0.08393,0.08358,0.08692,0.08729,132,165,196,163,0,0.956838,5.67343,-0.0092222,205873,
165,0.01332,0.01665,0.01665,0.01332,0.08057,0.08024,0.08358,0.08393,133,166,197,164,0,0.95928,5.71824,-0.00288595,205876,
166,0.01332,0.01665,0.01665,0.01332,0.07722,0.07689,0.08024,0.08057,134,167,198,165,0,0.96041,5.76444,-0.00292451,205873,
167,0.01332,0.01665,0.01665,0.01332,0.07386,0.07355,0.07689,0.07722,135,168,199,166,0,0.966764,5.7779,0.00557952,205881,
168,0.01332,0.01665,0.01665,0.01332,0.0705,0.07021,0.07355,0.07386,136,169,200,167,0,0.948011,5.61219,0.00274336,205863,
169,0.01332,0.01665,0.01665,0.01332,0.06714,0.06686,0.07021,0.0705,137,170,201,168,0,0.949877,5.69659,-0.0105935,205867,
170,0.01332,0.01665,0.01665,0.01332,0.06379,0.06352,0.06686,0.06714,138,171,202,169,0,0.966954,5.77582,0.00326954,205869,
171,0.01332,0.01665,0.01665,0.01332,0.06043,0.06018,0.06352,0.06379,139,172,203,170,0,1.00185,5.88863,0.00450817,205860,
172,0.01332,0.01665,0.01665,0.01332,0.05707,0.05684,0.06018,0.06043,140,173,204,171,0,0.966843,5.82773,-0.0193244,205876,
173,0.01332,0.01665,0.01665,0.01332,0.05372,0.05349,0.05684,0.05707,141,174,205,172,0,0.963921,5.81684,-0.0236961,205869,
174,0.01332,0.01665,0.01665,0.01332,0.05036,0.05015,0.05349,0.05372,142,175,206,173,0,0.957729,5.71089,-0.00884366,205859,
175,0.01332,0.01665,0.01665,0.01332,0.047,0.04681,0.05015,0.05036,143,176,207,174,0,0.933608,5.57707,0.00347353,205849,
176,0.01332,0.01665,0.01665,0.01332,0.04364,0.04346,0.04681,0.047,144,177,208,175,0,0.973452,5.82856,-0.00224779,205850,
177,0.01332,0.01665,0.01665,0.01332,0.04029,0.04012,0.04346,0.04364,145,178,209,176,0,0.945807,5.78191,-0.0181993,205863,
178,0.01332,0.01665,0.01665,0.01332,0.03693,0.03678,0.04012,0.04029,146,179,210,177,0,0.960513,5.77491,-0.0348752,205862,
179,0.01332,0.01665,0.01665,0.01332,0.03357,0.03343,0.03678,0.03693,147,180,211,178,0,0.966633,5.78711,-0.026262,205855,
180,0.01332,0.01665,0.01665,0.01332,0.03022,0.03009,0.03343,0.03357,148,181,212,179,0,0.960743,5.72148,-0.00522367,205849,
181,0.01332,0.01665,0.01665,0.01332,0.02686,0.02675,0.03009,0.03022,149,182,213,180,0,0.964282,5.7969,0.00649238,205853,
182,0.01332,0.01665,0.01665,0.01332,0.0235,0.0234,0.02675,0.02686,150,183,214,181,0,0.95827,5.67954,0.00810369,205836,
183,0.01332,0.01665,0.01665,0.01332,0.02014,0.02006,0.0234,0.0235,151,184,215,182,0,0.97547,5.79871,0.00179396,205852,
184,0.01332,0.01665,0.01665,0.01332,0.01679,0.01672,0.02006,0.02014,152,185,216,183,0,0.967645,5.82856,-0.00257778,205847,
185,0.01332,0.01665,0.01665,0.01332,0.01343,0.01337,0.01672,0.01679,153,186,217,184,0,0.892443,5.37161,-0.0120306,205812,
186,0.01332,0.01665,0.01665,0.01332,0.01007,0.01003,0.01337,0.01343,154,187,218,185,0,0.967005,5.87053,-0.0280311,205845,
187,0.01332,0.01665,0.01665,0.01332,0.00671,0.00669,0.01003,0.01007,155,188,219,186,0,0.962296,5.75017,-0.0220885,205821,
188,0.01332,0.01665,0.01665,0.01332,0.00336,0.00334,0.00669,0.00671,156,189,220,187,0,0.962143,5.74493,-0.00902671,205819,
189,0.01332,0.01665,0.01665,0.01332,0,0,0.00334,0.00336,157,190,221,188,0,0.961125,5.8222,0.0020652,205826,
190,0.01332,0.01665,0.01665,0.01332,-0.00336,-0.00334,0,0,158,-2,222,189,1,0.961125,5.8222,-0.0020652,205826,
191,0.01665,0.01999,0.01999,0.01665,0.1003,0.09987,0.1032,0.10364,159,192,223,-2,1,0.957914,5.64275,-0.0033111,205902,
192,0.01665,0.01999,0.01999,0.01665,0.09695,0.09654,0.09987,0.1003,160,193,224,191,0,0.957914,5.64275,0.0033111,205902,
193,0.01665,0.01999,0.01999,0.01665,0.09361,0.09321,0.09654,0.09695,161,194,225,192,0,0.961197,5.58362,0.0112907,205912,
194,0.01665,0.01999,0.01999,0.01665,0.09027,0.08988,0.09321,0.09361,162,195,226,193,0,0.955263,5.62103,0.0126263,205920,
195,0.01665,0.01999,0.01999,0.01665,0.08692,0.08655,0.08988,0.09027,163,196,227,194,0,0.938433,5.45303,0.00822835,205927,
196,0.01665,0.01999,0.01999,0.01665,0.08358,0.08322,0.08655,0.08692,164,197,228,195,0,0.957783,5.5985,0.00298852,205917,
197,0.01665,0.01999,0.01999,0.01665,0.08024,0.0799,0.08322,0.08358,165,198,229,196,0,0.95562,5.61019,-0.000971944,205909,
198,0.01665,0.01999,0.01999,0.01665,0.07689,0.07657,0.0799,0.08024,166,199,230,197,0,0.963905,5.7012,-0.00345351,205918,
199,0.01665,0.01999,0.01999,0.01665,0.07355,0.07324,0.07657,0.07689,167,200,231,198,0,0.9597,5.65223,0.000272256,205924,
200,0.01665,0.01999,0.01999,0.01665,0.07021,0.06991,0.07324,0.07355,168,201,232,199,0,0.94833,5.54368,-0.000351114,205933,
201,0.01665,0.01999,0.01999,0.01665,0.06686,0.06658,0.06991,0.07021,169,202,233,200,0,0.964337,5.6995,-0.0189631,205923,
202,0.01665,0.01999,0.01999,0.01665,0.06352,0.06325,0.06658,0.06686,170,203,234,201,0,0.957623,5.6286,-0.0159584,205909,
203,0.01665,0.01999,0.01999,0.01665,0.06018,0.05992,0.06325,0.06352,171,204,235,202,0,0.880726,5.08461,-0.0152622,205901,
204,0.01665,0.01999,0.01999,0.01665,0.05684,0.05659,0.05992,0.06018,172,205,236,203,0,0.955652,5.65984,-0.0378461,205911,
205,0.01665,0.01999,0.01999,0.01665,0.05349,0.05326,0.05659,0.05684,173,206,237,204,0,0.959356,5.69319,-0.0295655,205905,
206,0.01665,0.01999,0.01999,0.01665,0.05015,0.04993,0.05326,0.05349,174,207,238,205,0,0.954636,5.61321,-0.00543488,205903,
207,0.01665,0.01999,0.01999,0.01665,0.04681,0.04661,0.04993,0.05015,175,208,239,206,0,0.933794,5.5019,-0.00106118,205901,
208,0.01665,0.01999,0.01999,0.01665,0.04346,0.04328,0.04661,0.04681,176,209,240,207,0,0.955971,5.63057,0.00184356,205888,
209,0.01665,0.01999,0.01999,0.01665,0.04012,0.03995,0.04328,0.04346,177,210,241,208,0,0.970822,5.83787,-0.00383847,205913,
210,0.01665,0.01999,0.01999,0.01665,0.03678,0.03662,0.03995,0.04012,178,211,242,209,0,0.957276,5.67215,-0.0197818,205899,
211,0.01665,0.01999,0.01999,0.01665,0.03343,0.03329,0.03662,0.03678,179,212,243,210,0,0.959093,5.64173,-0.0152187,205895,
212,0.01665,0.01999,0.01999,0.01665,0.03009,0.02996,0.03329,0.03343,180,213,244,211,0,0.966905,5.6713,-0.00722749,205898,
213,0.01665,0.01999,0.01999,0.01665,0.02675,0.02663,0.02996,0.03009,181,214,245,212,0,0.96011,5.68455,0.00225334,205898,
214,0.01665,0.01999,0.01999,0.01665,0.0234,0.0233,0.02663,0.02675,182,215,246,213,0,0.959527,5.59934,0.0118183,205904,
215,0.01665,0.01999,0.01999,0.01665,0.02006,0.01997,0.0233,0.0234,183,216,247,214,0,0.946936,5.54022,-0.0139881,205894,
216,0.01665,0.01999,0.01999,0.01665,0.01672,0.01664,0.01997,0.02006,184,217,248,215,0,0.957458,5.68726,-0.0280797,205888,
217,0.01665,0.01999,0.01999,0.01665,0.01337,0.01332,0.01664,0.01672,185,218,249,216,0,0.892829,5.29397,-0.0108181,205900,
218,0.01665,0.01999,0.01999,0.01665,0.01003,0.00999,0.01332,0.01337,186,219,250,217,0,0.960336,5.73794,-0.0135157,205868,
219,0.01665,0.01999,0.01999,0.01665,0.00669,0.00666,0.00999,0.01003,187,220,251,218,0,0.964192,5.67887,-0.0110653,205861,
220,0.01665,0.01999,0.01999,0.01665,0.00334,0.00333,0.00666,0.00669,188,221,252,219,0,0.966262,5.68126,0.00293555,205870,
221,0.01665,0.01999,0.01999,0.01665,0,0,0.00333,0.00334,189,222,253,220,0,0.965905,5.76332,0.00505796,205878,
222,0.01665,0.01999,0.01999,0.01665,-0.00334,-0.00333,0,0,190,-2,254,221,1,0.965905,5.76332,-0.00505796,205878,
223,0.01999,0.02332,0.02332,0.01999,0.09987,0.09943,0.10275,0.1032,191,224,255,-2,1,0.959577,5.55888,-0.00516668,205958,
224,0.01999,0.02332,0.02332,0.01999,0.09654,0.09612,0.09943,0.09987,192,225,256,223,0,0.959577,5.55888,0.00516668,205958,
225,0.01999,0.02332,0.02332,0.01999,0.09321,0.09281,0.09612,0.09654,193,226,257,224,0,0.955012,5.45954,0.019581,205961,
226,0.01999,0.02332,0.02332,0.01999,0.08988,0.08949,0.09281,0.09321,194,227,258,225,0,0.958987,5.55292,0.0276295,205964,
227,0.01999,0.02332,0.02332,0.01999,0.08655,0.08618,0.08949,0.08988,195,228,259,226,0,0.969097,5.52811,0.0217828,205972,
228,0.01999,0.02332,0.02332,0.01999,0.08322,0.08286,0.08618,0.08655,196,229,260,227,0,0.95488,5.49874,0.0193772,205963,
229,0.01999,0.02332,0.02332,0.01999,0.0799,0.07955,0.08286,0.08322,197,230,261,228,0,0.956315,5.52334,0.0259894,205966,
230,0.01999,0.02332,0.02332,0.01999,0.07657,0.07623,0.07955,0.0799,198,231,262,229,0,0.95588,5.56177,0.0299064,205956,
231,0.01999,0.02332,0.02332,0.01999,0.07324,0.07292,0.07623,0.07657,199,232,263,230,0,0.961423,5.57277,0.0360765,205962,
232,0.01999,0.02332,0.02332,0.01999,0.06991,0.0696,0.07292,0.07324,200,233,264,231,0,0.95606,5.49474,0.0357815,205966,
233,0.01999,0.02332,0.02332,0.01999,0.06658,0.06629,0.0696,0.06991,201,234,265,232,0,0.9469,5.51156,0.0225029,205946,
234,0.01999,0.02332,0.02332,0.01999,0.06325,0.06298,0.06629,0.06658,202,235,266,233,0,0.960328,5.54545,0.0186817,205949,
235,0.01999,0.02332,0.02332,0.01999,0.05992,0.05966,0.06298,0.06325,203,236,267,234,0,1.09872,6.20474,0.0138577,205949,
236,0.01999,0.02332,0.02332,0.01999,0.05659,0.05635,0.05966,0.05992,204,237,268,235,0,0.956083,5.55326,-0.00446071,205962,
237,0.01999,0.02332,0.02332,0.01999,0.05326,0.05303,0.05635,0.05659,205,238,269,236,0,0.96766,5.63449,0.00428258,205955,
238,0.01999,0.02332,0.02332,0.01999,0.04993,0.04972,0.05303,0.05326,206,239,270,237,0,0.964253,5.57684,0.0218149,205959,
239,0.01999,0.02332,0.02332,0.01999,0.04661,0.0464,0.04972,0.04993,207,240,271,238,0,0.939373,5.45623,0.0202516,205945,
240,0.01999,0.02332,0.02332,0.01999,0.04328,0.04309,0.0464,0.04661,208,241,272,239,0,0.958376,5.53438,0.0320272,205963,
241,0.01999,0.02332,0.02332,0.01999,0.03995,0.03977,0.04309,0.04328,209,242,273,240,0,0.946683,5.59783,0.0250283,205996,
242,0.01999,0.02332,0.02332,0.01999,0.03662,0.03646,0.03977,0.03995,210,243,274,241,0,0.959085,5.59591,0.0178359,205953,
243,0.01999,0.02332,0.02332,0.01999,0.03329,0.03314,0.03646,0.03662,211,244,275,242,0,0.973329,5.62999,0.023693,205949,
244,0.01999,0.02332,0.02332,0.01999,0.02996,0.02983,0.03314,0.03329,212,245,276,243,0,0.954019,5.50843,0.0270035,205939,
245,0.01999,0.02332,0.02332,0.01999,0.02663,0.02652,0.02983,0.02996,213,246,277,244,0,0.963679,5.61109,0.0317883,205947,
246,0.01999,0.02332,0.02332,0.01999,0.0233,0.0232,0.02652,0.02663,214,247,278,245,0,0.953311,5.48355,0.0342731,205934,
247,0.01999,0.02332,0.02332,0.01999,0.01997,0.01989,0.0232,0.0233,215,248,279,246,0,0.947181,5.48246,0.0267346,205950,
248,0.01999,0.02332,0.02332,0.01999,0.01664,0.01657,0.01989,0.01997,216,249,280,247,0,0.958259,5.60769,0.0240321,205935,
249,0.01999,0.02332,0.02332,0.01999,0.01332,0.01326,0.01657,0.01664,217,250,281,248,0,0.893788,5.20598,0.0108807,205907,
250,0.01999,0.02332,0.02332,0.01999,0.00999,0.00994,0.01326,0.01332,218,251,282,249,0,0.962693,5.65702,-0.0207653,205921,
251,0.01999,0.02332,0.02332,0.01999,0.00666,0.00663,0.00994,0.00999,219,252,283,250,0,0.956337,5.5417,-0.0186036,205910,
252,0.01999,0.02332,0.02332,0.01999,0.00333,0.00331,0.00663,0.00666,220,253,284,251,0,0.953769,5.52371,-0.00265892,205913,
253,0.01999,0.02332,0.02332,0.01999,0,0,0.00331,0.00333,221,254,285,252,0,0.954954,5.60967,0.00360634,205921,
254,0.01999,0.02332,0.02332,0.01999,-0.00333,-0.00331,0,0,222,-2,286,253,1,0.954954,5.60967,-0.00360634,205921,
255,0.02332,0.02665,0.02665,0.02332,0.09943,0.09899,0.10229,0.10275,223,256,287,-2,1,0.955643,5.44895,-0.00642246,206010,
256,0.02332,0.02665,0.02665,0.02332,0.09612,0.09569,0.09899,0.09943,224,257,288,255,0,0.955643,5.44895,0.00642246,206010,
257,0.02332,0.02665,0.02665,0.02332,0.09281,0.0924,0.09569,0.09612,225,258,289,256,0,0.957732,5.38672,0.0116188,206009,
258,0.02332,0.02665,0.02665,0.02332,0.08949,0.0891,0.0924,0.09281,226,259,290,257,0,0.950268,5.42221,0.0160888,206012,