'cellnumber','cornerlocs_x','cornerlocs_y','adjacent_cells','edge_state','initial_conditions'
1,-0.00335,-1e-05,-1e-05,-0.00335,0.09926,0.09889,0.1023,0.10268,-2,2,32,-2,3,1,1,0,200000,
2,-0.00335,-1e-05,-1e-05,-0.00335,0.09584,0.09548,0.09889,0.09926,-2,3,33,1,3,1,1,0,200000,
3,-0.00335,-1e-05,-1e-05,-0.00335,0.09241,0.09207,0.09548,0.09584,-2,4,34,2,3,1,1,0,200000,
4,-0.00335,-1e-05,-1e-05,-0.00335,0.08899,0.08866,0.09207,0.09241,-2,5,35,3,3,1,1,0,200000,
5,-0.00335,-1e-05,-1e-05,-0.00335,0.08557,0.08525,0.08866,0.08899,-2,6,36,4,3,1,1,0,200000,
6,-0.00335,-1e-05,-1e-05,-0.00335,0.08214,0.08184,0.08525,0.08557,-2,7,37,5,3,1,1,0,200000,
7,-0.00335,-1e-05,-1e-05,-0.00335,0.07872,0.07843,0.08184,0.08214,-2,8,38,6,3,1,1,0,200000,
8,-0.00335,-1e-05,-1e-05,-0.00335,0.0753,0.07502,0.07843,0.07872,-2,9,39,7,3,1,1,0,200000,
9,-0.00335,-1e-05,-1e-05,-0.00335,0.07188,0.07161,0.07502,0.0753,-2,10,40,8,3,1,1,0,200000,
10,-0.00335,-1e-05,-1e-05,-0.00335,0.06845,0.0682,0.07161,0.07188,-2,11,41,9,3,1,1,0,200000,
11,-0.00335,-1e-05,-1e-05,-0.00335,0.06503,0.06479,0.0682,0.06845,-2,12,42,10,3,1,1,0,200000,
12,-0.00335,-1e-05,-1e-05,-0.00335,0.06161,0.06138,0.06479,0.06503,-2,13,43,11,3,1,1,0,200000,
13,-0.00335,-1e-05,-1e-05,-0.00335,0.05819,0.05797,0.06138,0.06161,-2,14,44,12,3,1,1,0,200000,
14,-0.00335,-1e-05,-1e-05,-0.00335,0.05476,0.05456,0.05797,0.05819,-2,15,45,13,3,1,1,0,200000,
15,-0.00335,-1e-05,-1e-05,-0.00335,0.05134,0.05115,0.05456,0.05476,-2,16,46,14,3,1,1,0,200000,
16,-0.00335,-1e-05,-1e-05,-0.00335,0.04792,0.04774,0.05115,0.05134,-2,17,47,15,3,1,1,0,200000,
17,-0.00335,-1e-05,-1e-05,-0.00335,0.0445,0.04433,0.04774,0.04792,-2,18,48,16,3,1,1,0,200000,
18,-0.00335,-1e-05,-1e-05,-0.00335,0.04107,0.04092,0.04433,0.0445,-2,19,49,17,3,1,1,0,200000,
19,-0.00335,-1e-05,-1e-05,-0.00335,0.03765,0.03751,0.04092,0.04107,-2,20,50,18,3,1,1,0,200000,
20,-0.00335,-1e-05,-1e-05,-0.00335,0.03423,0.0341,0.03751,0.03765,-2,21,51,19,3,1,1,0,200000,
21,-0.00335,-1e-05,-1e-05,-0.00335,0.0308,0.03069,0.0341,0.03423,-2,22,52,20,3,1,1,0,200000,
22,-0.00335,-1e-05,-1e-05,-0.00335,0.02738,0.02728,0.03069,0.0308,-2,23,53,21,3,1,1,0,200000,
23,-0.00335,-1e-05,-1e-05,-0.00335,0.02396,0.02387,0.02728,0.02738,-2,24,54,22,3,1,1,0,200000,
24,-0.00335,-1e-05,-1e-05,-0.00335,0.02054,0.02046,0.02387,0.02396,-2,25,55,23,3,1,1,0,200000,
25,-0.00335,-1e-05,-1e-05,-0.00335,0.01711,0.01705,0.02046,0.02054,-2,26,56,24,3,1,1,0,200000,
26,-0.00335,-1e-05,-1e-05,-0.00335,0.01369,0.01364,0.01705,0.01711,-2,27,57,25,3,1,1,0,200000,
27,-0.00335,-1e-05,-1e-05,-0.00335,0.01027,0.01023,0.01364,0.01369,-2,28,58,26,3,1,1,0,200000,
28,-0.00335,-1e-05,-1e-05,-0.00335,0.00685,0.00682,0.01023,0.01027,-2,29,59,27,3,1,1,0,200000,
29,-0.00335,-1e-05,-1e-05,-0.00335,0.00342,0.00341,0.00682,0.00685,-2,30,60,28,3,1,1,0,200000,
30,-0.00335,-1e-05,-1e-05,-0.00335,0,0,0.00341,0.00342,-2,-2,61,29,3,1,1,0,200000,
31,-1e-05,0.00332,0.00332,-1e-05,0.1023,0.10192,0.10532,0.10571,-2,32,63,-2,1,0.9983856429,1.571162126,-0.2310886722,199550.4716,
32,-1e-05,0.00332,0.00332,-1e-05,0.09889,0.09852,0.10192,0.1023,1,33,64,31,0,0.9983856429,1.582831679,-0.1288265369,199550.4716,
33,-1e-05,0.00332,0.00332,-1e-05,0.09548,0.09513,0.09852,0.09889,2,34,65,32,0,0.9983176575,1.585039934,-0.09283925404,199531.4794,
34,-1e-05,0.00332,0.00332,-1e-05,0.09207,0.09173,0.09513,0.09548,3,35,66,33,0,0.9982795821,1.586674264,-0.06994540433,199520.8554,
35,-1e-05,0.00332,0.00332,-1e-05,0.08866,0.08833,0.09173,0.09207,4,36,67,34,0,0.9982598438,1.587655964,-0.05615595689,199515.3529,
36,-1e-05,0.00332,0.00332,-1e-05,0.08525,0.08494,0.08833,0.08866,5,37,68,35,0,0.9982477922,1.588670771,-0.04623653799,199511.9935,
37,-1e-05,0.00332,0.00332,-1e-05,0.08184,0.08154,0.08494,0.08525,6,38,69,36,0,0.998239081,1.589838465,-0.03904204937,199509.5663,
38,-1e-05,0.00332,0.00332,-1e-05,0.07843,0.07814,0.08154,0.08184,7,39,70,37,0,0.9982332953,1.590858768,-0.03409429428,199507.9552,
39,-1e-05,0.00332,0.00332,-1e-05,0.07502,0.07474,0.07814,0.07843,8,40,71,38,0,0.9982286107,1.591725134,-0.03018879138,199506.6502,
40,-1e-05,0.00332,0.00332,-1e-05,0.07161,0.07135,0.07474,0.07502,9,41,72,39,0,0.998225298,1.592380655,-0.02675200067,199505.7274,
41,-1e-05,0.00332,0.00332,-1e-05,0.0682,0.06795,0.07135,0.07161,10,42,73,40,0,0.9982219001,1.593149557,-0.02388284556,199504.7814,
42,-1e-05,0.00332,0.00332,-1e-05,0.06479,0.06455,0.06795,0.0682,11,43,74,41,0,0.9982196521,1.593687804,-0.02174236054,199504.1557,
43,-1e-05,0.00332,0.00332,-1e-05,0.06138,0.06115,0.06455,0.06479,12,44,75,42,0,0.9982172601,1.59432206,-0.01988674974,199503.4899,
44,-1e-05,0.00332,0.00332,-1e-05,0.05797,0.05776,0.06115,0.06138,13,45,76,43,0,0.9982156359,1.594766152,-0.01799071165,199503.0377,
45,-1e-05,0.00332,0.00332,-1e-05,0.05456,0.05436,0.05776,0.05797,14,46,77,44,0,0.998213635,1.595292678,-0.01628601108,199502.4809,
46,-1e-05,0.00332,0.00332,-1e-05,0.05115,0.05096,0.05436,0.05456,15,47,78,45,0,0.9982123248,1.595634454,-0.01497458777,199502.1163,
47,-1e-05,0.00332,0.00332,-1e-05,0.04774,0.04756,0.05096,0.05115,16,48,79,46,0,0.9982109525,1.596035846,-0.01380889058,199501.7343,
48,-1e-05,0.00332,0.00332,-1e-05,0.04433,0.04417,0.04756,0.04774,17,49,80,47,0,0.9982098423,1.596388619,-0.01247732071,199501.4254,
49,-1e-05,0.00332,0.00332,-1e-05,0.04092,0.04077,0.04417,0.04433,18,50,81,48,0,0.9982086351,1.596705485,-0.01122602491,199501.0895,
50,-1e-05,0.00332,0.00332,-1e-05,0.03751,0.03737,0.04077,0.04092,19,51,82,49,0,0.9982077241,1.596954956,-0.01027085159,199500.836,
51,-1e-05,0.00332,0.00332,-1e-05,0.0341,0.03397,0.03737,0.03751,20,52,83,50,0,0.998206842,1.597241995,-0.009376969814,199500.5906,
52,-1e-05,0.00332,0.00332,-1e-05,0.03069,0.03058,0.03397,0.0341,21,53,84,51,0,0.9982061361,1.59749399,-0.0082872707,199500.3942,
53,-1e-05,0.00332,0.00332,-1e-05,0.02728,0.02718,0.03058,0.03069,22,54,85,52,0,0.9982053495,1.597695949,-0.00723484265,199500.1753,
54,-1e-05,0.00332,0.00332,-1e-05,0.02387,0.02378,0.02718,0.02728,23,55,86,53,0,0.9982047899,1.5978507,-0.006445655353,199500.0197,
55,-1e-05,0.00332,0.00332,-1e-05,0.02046,0.02038,0.02378,0.02387,24,56,87,54,0,0.9982041409,1.598081892,-0.005655214716,199499.8392,
56,-1e-05,0.00332,0.00332,-1e-05,0.01705,0.01699,0.02038,0.02046,25,57,88,55,0,0.9982039268,1.598177697,-0.004678514848,199499.7796,
57,-1e-05,0.00332,0.00332,-1e-05,0.01364,0.01359,0.01699,0.01705,26,58,89,56,0,0.9982032704,1.598345063,-0.003711449338,199499.597,
58,-1e-05,0.00332,0.00332,-1e-05,0.01023,0.01019,0.01359,0.01364,27,59,90,57,0,0.998203149,1.598354457,-0.0029750135,199499.5632,
59,-1e-05,0.00332,0.00332,-1e-05,0.00682,0.00679,0.01019,0.01023,28,60,91,58,0,0.9982026949,1.598530511,-0.002245239285,199499.4369,
60,-1e-05,0.00332,0.00332,-1e-05,0.00341,0.0034,0.00679,0.00682,29,61,92,59,0,0.9982027614,1.598547128,-0.001293122882,199499.4555,
61,-1e-05,0.00332,0.00332,-1e-05,0,0,0.0034,0.00341,30,62,93,60,0,0.9982023741,1.598635228,-0.0003530355007,199499.3477,
62,-1e-05,0.00332,0.00332,-1e-05,-0.00341,-0.0034,0,0,-2,-2,94,61,1,0.9982023741,1.598635228,0.0003530355007,199499.3477,
63,0.00332,0.00665,0.00665,0.00332,0.10192,0.10153,0.10492,0.10532,31,64,95,-2,1,0.9983287751,1.614185441,-0.2098436087,199534.734,
64,0.00332,0.00665,0.00665,0.00332,0.09852,0.09815,0.10153,0.10192,32,65,96,63,0,0.9983287751,1.618990403,-0.1688166254,199534.734,
65,0.00332,0.00665,0.00665,0.00332,0.09513,0.09476,0.09815,0.09852,33,66,97,64,0,0.998291329,1.611605102,-0.1412953123,199524.2377,
66,0.00332,0.00665,0.00665,0.00332,0.09173,0.09138,0.09476,0.09513,34,67,98,65,0,0.9982700957,1.605762286,-0.1175730353,199518.2882,
67,0.00332,0.00665,0.00665,0.00332,0.08833,0.08799,0.09138,0.09173,35,68,99,66,0,0.9982524055,1.602271406,-0.09852303069,199513.3356,
68,0.00332,0.00665,0.00665,0.00332,0.08494,0.08461,0.08799,0.08833,36,69,100,67,0,0.9982410041,1.599811516,-0.0844332058,199510.1428,
69,0.00332,0.00665,0.00665,0.00332,0.08154,0.08122,0.08461,0.08494,37,70,101,68,0,0.9982325074,1.59924564,-0.07344796871,199507.7684,
70,0.00332,0.00665,0.00665,0.00332,0.07814,0.07784,0.08122,0.08154,38,71,102,69,0,0.9982264466,1.598772065,-0.06452517821,199506.0738,
71,0.00332,0.00665,0.00665,0.00332,0.07474,0.07446,0.07784,0.07814,39,72,103,70,0,0.9982215953,1.598655011,-0.05715008962,199504.7179,
72,0.00332,0.00665,0.00665,0.00332,0.07135,0.07107,0.07446,0.07474,40,73,104,71,0,0.9982171968,1.598726415,-0.05133005554,199503.4889,
73,0.00332,0.00665,0.00665,0.00332,0.06795,0.06769,0.07107,0.07135,41,74,105,72,0,0.9982145731,1.598928921,-0.04639847235,199502.7567,
74,0.00332,0.00665,0.00665,0.00332,0.06455,0.0643,0.06769,0.06795,42,75,106,73,0,0.998211399,1.599264422,-0.04204522262,199501.871,
75,0.00332,0.00665,0.00665,0.00332,0.06115,0.06092,0.0643,0.06455,43,76,107,74,0,0.9982094113,1.599460628,-0.03822271919,199501.3161,
76,0.00332,0.00665,0.00665,0.00332,0.05776,0.05753,0.06092,0.06115,44,77,108,75,0,0.9982070266,1.599721848,-0.03492538094,199500.6503,
77,0.00332,0.00665,0.00665,0.00332,0.05436,0.05415,0.05753,0.05776,45,78,109,76,0,0.998205529,1.599973011,-0.03194770944,199500.2328,
78,0.00332,0.00665,0.00665,0.00332,0.05096,0.05077,0.05415,0.05436,46,79,110,77,0,0.9982039126,1.600217648,-0.02911344298,199499.7819,
79,0.00332,0.00665,0.00665,0.00332,0.04756,0.04738,0.05077,0.05096,47,80,111,78,0,0.9982023997,1.600544677,-0.02660215454,199499.3602,
80,0.00332,0.00665,0.00665,0.00332,0.04417,0.044,0.04738,0.04756,48,81,112,79,0,0.9982013325,1.600718736,-0.02429000709,199499.0623,
81,0.00332,0.00665,0.00665,0.00332,0.04077,0.04061,0.044,0.04417,49,82,113,80,0,0.9982001198,1.60102742,-0.02211075186,199498.7246,
82,0.00332,0.00665,0.00665,0.00332,0.03737,0.03723,0.04061,0.04077,50,83,114,81,0,0.998199233,1.601204684,-0.01999294157,199498.4774,
83,0.00332,0.00665,0.00665,0.00332,0.03397,0.03384,0.03723,0.03737,51,84,115,82,0,0.9981982907,1.601427705,-0.0180015814,199498.2147,
84,0.00332,0.00665,0.00665,0.00332,0.03058,0.03046,0.03384,0.03397,52,85,116,83,0,0.9981976009,1.601558649,-0.01613236449,199498.0222,
85,0.00332,0.00665,0.00665,0.00332,0.02718,0.02707,0.03046,0.03058,53,86,117,84,0,0.9981968262,1.601769196,-0.01432162724,199497.8066,
86,0.00332,0.00665,0.00665,0.00332,0.02378,0.02369,0.02707,0.02718,54,87,118,85,0,0.998196279,1.60188055,-0.01254057368,199497.654,
87,0.00332,0.00665,0.00665,0.00332,0.02038,0.02031,0.02369,0.02378,55,88,119,86,0,0.9981958303,1.602017175,-0.01072972347,199497.529,
88,0.00332,0.00665,0.00665,0.00332,0.01699,0.01692,0.02031,0.02038,56,89,120,87,0,0.9981952627,1.602145808,-0.009083531056,199497.3707,
89,0.00332,0.00665,0.00665,0.00332,0.01359,0.01354,0.01692,0.01699,57,90,121,88,0,0.9981950807,1.602241873,-0.00744208266,199497.3203,
90,0.00332,0.00665,0.00665,0.00332,0.01019,0.01015,0.01354,0.01359,58,91,122,89,0,0.9981945516,1.602372733,-0.005759981788,199497.173,
91,0.00332,0.00665,0.00665,0.00332,0.00679,0.00677,0.01015,0.01019,59,92,123,90,0,0.9981945624,1.602403871,-0.004089664672,199497.176,
92,0.00332,0.00665,0.00665,0.00332,0.0034,0.00338,0.00677,0.00679,60,93,124,91,0,0.9981942049,1.602470246,-0.002474708658,199497.0762,
93,0.00332,0.00665,0.00665,0.00332,0,0,0.00338,0.0034,61,94,125,92,0,0.998194317,1.60246811,-0.0008665128356,199497.1076,
94,0.00332,0.00665,0.00665,0.00332,-0.0034,-0.00338,0,0,62,-2,126,93,1,0.998194317,1.60246811,0.0008665128356,199497.1076,
95,0.00665,0.00999,0.00999,0.00665,0.10153,0.10113,0.1045,0.10492,63,96,127,-2,1,0.9982950794,1.634820031,-0.2052659396,199525.4099,
96,0.00665,0.00999,0.00999,0.00665,0.09815,0.09776,0.10113,0.10153,64,97,128,95,0,0.9982950794,1.637058373,-0.1865757854,199525.4099,
97,0.00665,0.00999,0.00999,0.00665,0.09476,0.09439,0.09776,0.09815,65,98,129,96,0,0.9982773399,1.630142204,-0.1677025215,199520.4216,
98,0.00665,0.00999,0.00999,0.00665,0.09138,0.09102,0.09439,0.09476,66,99,130,97,0,0.9982594895,1.62199274,-0.1475593156,199515.3995,
99,0.00665,0.00999,0.00999,0.00665,0.08799,0.08765,0.09102,0.09138,67,100,131,98,0,0.9982487583,1.616069468,-0.1291919857,199512.3783,
100,0.00665,0.00999,0.00999,0.00665,0.08461,0.08427,0.08765,0.08799,68,101,132,99,0,0.9982377963,1.611952579,-0.11407966,199509.2997,
101,0.00665,0.00999,0.00999,0.00665,0.08122,0.0809,0.08427,0.08461,69,102,133,100,0,0.9982312837,1.608907685,-0.1013661095,199507.4681,
102,0.00665,0.00999,0.00999,0.00665,0.07784,0.07753,0.0809,0.08122,70,103,134,101,0,0.9982246169,1.606805192,-0.09017854349,199505.5965,
103,0.00665,0.00999,0.00999,0.00665,0.07446,0.07416,0.07753,0.07784,71,104,135,102,0,0.9982199454,1.605462449,-0.08110591934,199504.2853,
104,0.00665,0.00999,0.00999,0.00665,0.07107,0.07079,0.07416,0.07446,72,105,136,103,0,0.9982163995,1.604770275,-0.07325607039,199503.2912,
105,0.00665,0.00999,0.00999,0.00665,0.06769,0.06742,0.07079,0.07107,73,106,137,104,0,0.9982127365,1.60414478,-0.06650956563,199502.2644,
106,0.00665,0.00999,0.00999,0.00665,0.0643,0.06405,0.06742,0.06769,74,107,138,105,0,0.9982100994,1.603941204,-0.06053383064,199501.5262,
107,0.00665,0.00999,0.00999,0.00665,0.06092,0.06068,0.06405,0.0643,75,108,139,106,0,0.9982076179,1.603700743,-0.05520972309,199500.8311,
108,0.00665,0.00999,0.00999,0.00665,0.05753,0.05731,0.06068,0.06092,76,109,140,107,0,0.9982058873,1.603700085,-0.05051100374,199500.3469,
109,0.00665,0.00999,0.00999,0.00665,0.05415,0.05394,0.05731,0.05753,77,110,141,108,0,0.9982038819,1.603641579,-0.04618513307,199499.7857,
110,0.00665,0.00999,0.00999,0.00665,0.05077,0.05056,0.05394,0.05415,78,111,142,109,0,0.9982021765,1.603701508,-0.04236904387,199499.3088,
111,0.00665,0.00999,0.00999,0.00665,0.04738,0.04719,0.05056,0.05077,79,112,143,110,0,0.9982010666,1.603744656,-0.03873299648,199498.9983,
112,0.00665,0.00999,0.00999,0.00665,0.044,0.04382,0.04719,0.04738,80,113,144,111,0,0.9981996984,1.603797032,-0.03533091155,199498.6157,
113,0.00665,0.00999,0.00999,0.00665,0.04061,0.04045,0.04382,0.044,81,114,145,112,0,0.9981985951,1.603908138,-0.03213176673,199498.3074,
114,0.00665,0.00999,0.00999,0.00665,0.03723,0.03708,0.04045,0.04061,82,115,146,113,0,0.9981975381,1.603941211,-0.02907699244,199498.0117,
115,0.00665,0.00999,0.00999,0.00665,0.03384,0.03371,0.03708,0.03723,83,116,147,114,0,0.9981968587,1.604055854,-0.02621315157,199497.822,
116,0.00665,0.00999,0.00999,0.00665,0.03046,0.03034,0.03371,0.03384,84,117,148,115,0,0.9981959503,1.60419859,-0.02346069202,199497.5684,
117,0.00665,0.00999,0.00999,0.00665,0.02707,0.02697,0.03034,0.03046,85,118,149,116,0,0.9981954473,1.604256769,-0.02077204152,199497.4278,
118,0.00665,0.00999,0.00999,0.00665,0.02369,0.0236,0.02697,0.02707,86,119,150,117,0,0.9981948205,1.604299967,-0.01816784696,199497.2525,
119,0.00665,0.00999,0.00999,0.00665,0.02031,0.02023,0.0236,0.02369,87,120,151,118,0,0.998194366,1.604434382,-0.01568820779,199497.1258,
120,0.00665,0.00999,0.00999,0.00665,0.01692,0.01685,0.02023,0.02031,88,121,152,119,0,0.9981939011,1.604651529,-0.01321198104,199496.9967,
121,0.00665,0.00999,0.00999,0.00665,0.01354,0.01348,0.01685,0.01692,89,122,153,120,0,0.9981935939,1.604601003,-0.01078330471,199496.9104,
122,0.00665,0.00999,0.00999,0.00665,0.01015,0.01011,0.01348,0.01354,90,123,154,121,0,0.9981933788,1.60465312,-0.008345241738,199496.8504,
123,0.00665,0.00999,0.00999,0.00665,0.00677,0.00674,0.01011,0.01015,91,124,155,122,0,0.9981930714,1.604698092,-0.005939208792,199496.7646,
124,0.00665,0.00999,0.00999,0.00665,0.00338,0.00337,0.00674,0.00677,92,125,156,123,0,0.9981930763,1.604786534,-0.003554310177,199496.7663,
125,0.00665,0.00999,0.00999,0.00665,0,0,0.00337,0.00338,93,126,157,124,0,0.9981929129,1.604740693,-0.001163788358,199496.7204,
126,0.00665,0.00999,0.00999,0.00665,-0.00338,-0.00337,0,0,94,-2,158,125,1,0.9981929129,1.604740693,0.001163788358,199496.7204,
127,0.00999,0.01332,0.01332,0.00999,0.10113,0.10072,0.10407,0.1045,95,128,159,-2,1,0.9982740589,1.647277568,-0.2088038309,199519.5977,
128,0.00999,0.01332,0.01332,0.00999,0.09776,0.09736,0.10072,0.10113,96,129,160,127,0,0.9982740589,1.648729555,-0.1970108599,199519.5977,
129,0.00999,0.01332,0.01332,0.00999,0.09439,0.094,0.09736,0.09776,97,130,161,128,0,0.9982617771,1.642680711,-0.18377879,199516.1358,
130,0.00999,0.01332,0.01332,0.00999,0.09102,0.09065,0.094,0.09439,98,131,162,129,0,0.9982519786,1.635062698,-0.1675519401,199513.3635,
131,0.00999,0.01332,0.01332,0.00999,0.08765,0.08729,0.09065,0.09102,99,132,163,130,0,0.998241492,1.628349645,-0.1515057202,199510.4041,
132,0.00999,0.01332,0.01332,0.00999,0.08427,0.08393,0.08729,0.08765,100,133,164,131,0,0.9982346673,1.623519,-0.1367660313,199508.4768,
133,0.00999,0.01332,0.01332,0.00999,0.0809,0.08057,0.08393,0.08427,101,134,165,132,0,0.998226768,1.619010579,-0.1233153553,199506.25,
134,0.00999,0.01332,0.01332,0.00999,0.07753,0.07722,0.08057,0.0809,102,135,166,133,0,0.9982226998,1.615668139,-0.1115171224,199505.0987,
135,0.00999,0.01332,0.01332,0.00999,0.07416,0.07386,0.07722,0.07753,103,136,167,134,0,0.9982175645,1.613619924,-0.1012538597,199503.6545,
136,0.00999,0.01332,0.01332,0.00999,0.07079,0.0705,0.07386,0.07416,104,137,168,135,0,0.9982138699,1.611900672,-0.0922631381,199502.614,
137,0.00999,0.01332,0.01332,0.00999,0.06742,0.06714,0.0705,0.07079,105,138,169,136,0,0.9982108964,1.610618376,-0.08433987343,199501.7768,
138,0.00999,0.01332,0.01332,0.00999,0.06405,0.06379,0.06714,0.06742,106,139,170,137,0,0.9982082124,1.609619066,-0.07710172794,199501.0216,
139,0.00999,0.01332,0.01332,0.00999,0.06068,0.06043,0.06379,0.06405,107,140,171,138,0,0.9982057057,1.609104802,-0.07054972331,199500.318,
140,0.00999,0.01332,0.01332,0.00999,0.05731,0.05707,0.06043,0.06068,108,141,172,139,0,0.9982035508,1.608600981,-0.06477400857,199499.7128,
141,0.00999,0.01332,0.01332,0.00999,0.05394,0.05372,0.05707,0.05731,109,142,173,140,0,0.9982021423,1.608160725,-0.05943483524,199499.3165,
142,0.00999,0.01332,0.01332,0.00999,0.05056,0.05036,0.05372,0.05394,110,143,174,141,0,0.9982003599,1.608094633,-0.05441292537,199498.8174,
143,0.00999,0.01332,0.01332,0.00999,0.04719,0.047,0.05036,0.05056,111,144,175,142,0,0.998198808,1.607863474,-0.04972280617,199498.3819,
144,0.00999,0.01332,0.01332,0.00999,0.04382,0.04364,0.047,0.04719,112,145,176,143,0,0.9981978289,1.607682153,-0.04548379136,199498.1068,
145,0.00999,0.01332,0.01332,0.00999,0.04045,0.04029,0.04364,0.04382,113,146,177,144,0,0.9981968304,1.607510891,-0.04139867282,199497.8264,
146,0.00999,0.01332,0.01332,0.00999,0.03708,0.03693,0.04029,0.04045,114,147,178,145,0,0.998195738,1.607537901,-0.03747223534,199497.5207,
147,0.00999,0.01332,0.01332,0.00999,0.03371,0.03357,0.03693,0.03708,115,148,179,146,0,0.9981949705,1.607459656,-0.03383899156,199497.3053,
148,0.00999,0.01332,0.01332,0.00999,0.03034,0.03022,0.03357,0.03371,116,149,180,147,0,0.998194432,1.607464947,-0.03026868386,199497.1543,
149,0.00999,0.01332,0.01332,0.00999,0.02697,0.02686,0.03022,0.03034,117,150,181,148,0,0.9981935546,1.607508681,-0.02677481042,199496.9089,
150,0.00999,0.01332,0.01332,0.00999,0.0236,0.0235,0.02686,0.02697,118,151,182,149,0,0.9981931628,1.607530277,-0.02348405079,199496.7991,
151,0.00999,0.01332,0.01332,0.00999,0.02023,0.02014,0.0235,0.0236,119,152,183,150,0,0.9981925474,1.607613556,-0.02030830344,199496.6272,
152,0.00999,0.01332,0.01332,0.00999,0.01685,0.01679,0.02014,0.02023,120,153,184,151,0,0.9981924225,1.607609631,-0.01699881583,199496.5919,
153,0.00999,0.01332,0.01332,0.00999,0.01348,0.01343,0.01679,0.01685,121,154,185,152,0,0.9981919104,1.607654751,-0.01376892109,199496.4488,
154,0.00999,0.01332,0.01332,0.00999,0.01011,0.01007,0.01343,0.01348,122,155,186,153,0,0.998191675,1.607671693,-0.0107103001,199496.3829,
155,0.00999,0.01332,0.01332,0.00999,0.00674,0.00671,0.01007,0.01011,123,156,187,154,0,0.9981915372,1.607706154,-0.007644594295,199496.3444,
156,0.00999,0.01332,0.01332,0.00999,0.00337,0.00336,0.00671,0.00674,124,157,188,155,0,0.9981916379,1.607632924,-0.004572919101,199496.3721,
157,0.00999,0.01332,0.01332,0.00999,0,0,0.00336,0.00337,125,158,189,156,0,0.9981913324,1.607745704,-0.001507217307,199496.2872,
158,0.00999,0.01332,0.01332,0.00999,-0.00337,-0.00336,0,0,126,-2,190,157,1,0.9981913324,1.607745704,0.001507217307,199496.2872,
159,0.01332,0.01665,0.01665,0.01332,0.10072,0.1003,0.10364,0.10407,127,160,191,-2,1,0.9982581738,1.656257079,-0.2133169311,199515.2031,
160,0.01332,0.01665,0.01665,0.01332,0.09736,0.09695,0.1003,0.10072,128,161,192,159,0,0.9982581738,1.657354486,-0.204616059,199515.2031,
161,0.01332,0.01665,0.01665,0.01332,0.094,0.09361,0.09695,0.09736,129,162,193,160,0,0.9982511528,1.652487569,-0.1941839115,199513.2161,
162,0.01332,0.01665,0.01665,0.01332,0.09065,0.09027,0.09361,0.094,130,163,194,161,0,0.9982429488,1.645674909,-0.1812096248,199510.8911,
163,0.01332,0.01665,0.01665,0.01332,0.08729,0.08692,0.09027,0.09065,131,164,195,162,0,0.9982356621,1.639450813,-0.1677768855,199508.8265,
164,0.01332,0.01665,0.01665,0.01332,0.08393,0.08358,0.08692,0.08729,132,165,196,163,0,0.9982296221,1.633443942,-0.1540673314,199507.1115,
165,0.01332,0.01665,0.01665,0.01332,0.08057,0.08024,0.08358,0.08393,133,166,197,164,0,0.9982239711,1.628856204,-0.1406148906,199505.5115,
166,0.01332,0.01665,0.01665,0.01332,0.07722,0.07689,0.08024,0.08057,134,167,198,165,0,0.9982184461,1.624925279,-0.1289805704,199503.9499,
167,0.01332,0.01665,0.01665,0.01332,0.07386,0.07355,0.07689,0.07722,135,168,199,166,0,0.9982153105,1.621881883,-0.1185475762,199503.0598,
168,0.01332,0.01665,0.01665,0.01332,0.0705,0.07021,0.07355,0.07386,136,169,200,167,0,0.9982116103,1.619519803,-0.1084831913,199502.0144,
169,0.01332,0.01665,0.01665,0.01332,0.06714,0.06686,0.07021,0.0705,137,170,201,168,0,0.9982082162,1.617801198,-0.09960045171,199501.0574,
170,0.01332,0.01665,0.01665,0.01332,0.06379,0.06352,0.06686,0.06714,138,171,202,169,0,0.9982056592,1.616116485,-0.0916938668,199500.3344,
171,0.01332,0.01665,0.01665,0.01332,0.06043,0.06018,0.06352,0.06379,139,172,203,170,0,0.998203738,1.615011269,-0.08431985207,199499.7917,
172,0.01332,0.01665,0.01665,0.01332,0.05707,0.05684,0.06018,0.06043,140,173,204,171,0,0.9982017251,1.614171133,-0.07736168215,199499.2244,
173,0.01332,0.01665,0.01665,0.01332,0.05372,0.05349,0.05684,0.05707,141,174,205,172,0,0.9981995774,1.61349432,-0.07125720259,199498.6203,
174,0.01332,0.01665,0.01665,0.01332,0.05036,0.05015,0.05349,0.05372,142,175,206,173,0,0.9981984637,1.61289517,-0.06554681535,199498.3055,
175,0.01332,0.01665,0.01665,0.01332,0.047,0.04681,0.05015,0.05036,143,176,207,174,0,0.9981970536,1.612543506,-0.05985431054,199497.909,
176,0.01332,0.01665,0.01665,0.01332,0.04364,0.04346,0.04681,0.047,144,177,208,175,0,0.9981957358,1.612247065,-0.05467076319,199497.5385,
177,0.01332,0.01665,0.01665,0.01332,0.04029,0.04012,0.04346,0.04364,145,178,209,176,0,0.998194804,1.611818608,-0.04991784838,199497.2755,
178,0.01332,0.01665,0.01665,0.01332,0.03693,0.03678,0.04012,0.04029,146,179,210,177,0,0.9981940546,1.611666545,-0.0452566109,199497.0646,
179,0.01332,0.01665,0.01665,0.01332,0.03357,0.03343,0.03678,0.03693,147,180,211,178,0,0.9981930543,1.611561214,-0.04075659123,199496.7839,
180,0.01332,0.01665,0.01665,0.01332,0.03022,0.03009,0.03343,0.03357,148,181,212,179,0,0.9981924442,1.611355714,-0.03655247375,199496.6119,
181,0.01332,0.01665,0.01665,0.01332,0.02686,0.02675,0.03009,0.03022,149,182,213,180,0,0.9981919826,1.611294177,-0.03237574014,199496.4821,
182,0.01332,0.01665,0.01665,0.01332,0.0235,0.0234,0.02675,0.02686,150,183,214,181,0,0.9981912575,1.611300106,-0.02832194846,199496.279,
183,0.01332,0.01665,0.01665,0.01332,0.02014,0.02006,0.0234,0.0235,151,184,215,182,0,0.9981910946,1.61118746,-0.02437061146,199496.2325,
184,0.01332,0.01665,0.01665,0.01332,0.01679,0.01672,0.02006,0.02014,152,185,216,183,0,0.9981906035,1.611095465,-0.0204829804,199496.0945,
185,0.01332,0.01665,0.01665,0.01332,0.01343,0.01337,0.01672,0.01679,153,186,217,184,0,0.9981902057,1.611247518,-0.01672198494,199495.9837,
186,0.01332,0.01665,0.01665,0.01332,0.01007,0.01003,0.01337,0.01343,154,187,218,185,0,0.9981902166,1.611159484,-0.01292724625,199495.9862,
187,0.01332,0.01665,0.01665,0.01332,0.00671,0.00669,0.01003,0.01007,155,188,219,186,0,0.9981900787,1.611161052,-0.009108803134,199495.9474,
188,0.01332,0.01665,0.01665,0.01332,0.00336,0.00334,0.00669,0.00671,156,189,220,187,0,0.9981896713,1.611183666,-0.005505557588,199495.8336,
189,0.01332,0.01665,0.01665,0.01332,0,0,0.00334,0.00336,157,190,221,188,0,0.9981899289,1.611180344,-0.00190566616,199495.9055,
190,0.01332,0.01665,0.01665,0.01332,-0.00336,-0.00334,0,0,158,-2,222,189,1,0.9981899289,1.611180344,0.00190566616,199495.9055,
191,0.01665,0.01999,0.01999,0.01665,0.1003,0.09987,0.1032,0.10364,159,192,223,-2,1,0.9982470153,1.663243532,-0.2178576244,199512.119,
192,0.01665,0.01999,0.01999,0.01665,0.09695,0.09654,0.09987,0.1003,160,193,224,191,0,0.9982470153,1.664187651,-0.2105242345,199512.119,
193,0.01665,0.01999,0.01999,0.01665,0.09361,0.09321,0.09654,0.09695,161,194,225,192,0,0.9982411348,1.660497262,-0.2019188714,199510.4559,
194,0.01665,0.01999,0.01999,0.01665,0.09027,0.08988,0.09321,0.09361,162,195,226,193,0,0.998235718,1.654901955,-0.1914469364,199508.9147,
195,0.01665,0.01999,0.01999,0.01665,0.08692,0.08655,0.08988,0.09027,163,196,227,194,0,0.9982300075,1.648978196,-0.1794474995,199507.2905,
196,0.01665,0.01999,0.01999,0.01665,0.08358,0.08322,0.08655,0.08692,164,197,228,195,0,0.9982240219,1.642878677,-0.1669774262,199505.589,
197,0.01665,0.01999,0.01999,0.01665,0.08024,0.0799,0.08322,0.08358,165,198,229,196,0,0.9982196807,1.637777122,-0.1548175719,199504.3521,
198,0.01665,0.01999,0.01999,0.01665,0.07689,0.07657,0.0799,0.08024,166,199,230,197,0,0.9982159836,1.633961177,-0.1430482318,199503.3009,
199,0.01665,0.01999,0.01999,0.01665,0.07355,0.07324,0.07657,0.07689,167,200,231,198,0,0.9982114985,1.630329788,-0.1322869703,199502.0304,
200,0.01665,0.01999,0.01999,0.01665,0.07021,0.06991,0.07324,0.07355,168,201,232,199,0,0.9982086173,1.62736559,-0.1223941011,199501.211,
201,0.01665,0.01999,0.01999,0.01665,0.06686,0.06658,0.06991,0.07021,169,202,233,200,0,0.998206073,1.625236087,-0.1129414987,199500.4893,
202,0.01665,0.01999,0.01999,0.01665,0.06352,0.06325,0.06658,0.06686,170,203,234,201,0,0.9982033533,1.623297788,-0.1041464468,199499.7195,
203,0.01665,0.01999,0.01999,0.01665,0.06018,0.05992,0.06325,0.06352,171,204,235,202,0,0.9982013379,1.621563355,-0.09627652747,199499.1474,
204,0.01665,0.01999,0.01999,0.01665,0.05684,0.05659,0.05992,0.06018,172,205,236,203,0,0.9981991663,1.620357787,-0.08888021998,199498.534,
205,0.01665,0.01999,0.01999,0.01665,0.05349,0.05326,0.05659,0.05684,173,206,237,204,0,0.9981980221,1.61939226,-0.0818540862,199498.2088,
206,0.01665,0.01999,0.01999,0.01665,0.05015,0.04993,0.05326,0.05349,174,207,238,205,0,0.9981958628,1.618430175,-0.07527537028,199497.6,
207,0.01665,0.01999,0.01999,0.01665,0.04681,0.04661,0.04993,0.05015,175,208,239,206,0,0.9981950875,1.617575927,-0.06909353269,199497.3785,
208,0.01665,0.01999,0.01999,0.01665,0.04346,0.04328,0.04661,0.04681,176,209,240,207,0,0.9981937404,1.617234592,-0.06310382381,199496.9995,
209,0.01665,0.01999,0.01999,0.01665,0.04012,0.03995,0.04328,0.04346,177,210,241,208,0,0.9981928496,1.616747104,-0.05755010424,199496.7475,
210,0.01665,0.01999,0.01999,0.01665,0.03678,0.03662,0.03995,0.04012,178,211,242,209,0,0.9981918302,1.616389324,-0.05235473106,199496.4602,
211,0.01665,0.01999,0.01999,0.01665,0.03343,0.03329,0.03662,0.03678,179,212,243,210,0,0.9981914144,1.616094846,-0.04715575468,199496.3418,
212,0.01665,0.01999,0.01999,0.01665,0.03009,0.02996,0.03329,0.03343,180,213,244,211,0,0.9981905603,1.615888556,-0.04218254592,199496.1015,
213,0.01665,0.01999,0.01999,0.01665,0.02675,0.02663,0.02996,0.03009,181,214,245,212,0,0.9981899812,1.615631619,-0.03746171276,199495.9379,
214,0.01665,0.01999,0.01999,0.01665,0.0234,0.0233,0.02663,0.02675,182,215,246,213,0,0.998189775,1.615470791,-0.03273874897,199495.879,
215,0.01665,0.01999,0.01999,0.01665,0.02006,0.01997,0.0233,0.0234,183,216,247,214,0,0.9981890975,1.61533123,-0.0281265055,199495.6885,
216,0.01665,0.01999,0.01999,0.01665,0.01672,0.01664,0.01997,0.02006,184,217,248,215,0,0.9981888669,1.615210507,-0.02378056832,199495.6231,
217,0.01665,0.01999,0.01999,0.01665,0.01337,0.01332,0.01664,0.01672,185,218,249,216,0,0.9981888599,1.615125989,-0.01929804957,199495.6204,
218,0.01665,0.01999,0.01999,0.01665,0.01003,0.00999,0.01332,0.01337,186,219,250,217,0,0.9981883807,1.61508883,-0.01484975412,199495.486,
219,0.01665,0.01999,0.01999,0.01665,0.00669,0.00666,0.00999,0.01003,187,220,251,218,0,0.9981882076,1.615126227,-0.01065010318,199495.4376,
220,0.01665,0.01999,0.01999,0.01665,0.00334,0.00333,0.00666,0.00669,188,221,252,219,0,0.9981884251,1.615174804,-0.006370068233,199495.4984,
221,0.01665,0.01999,0.01999,0.01665,0,0,0.00333,0.00334,189,222,253,220,0,0.9981880903,1.615146955,-0.002102060948,199495.4047,
222,0.01665,0.01999,0.01999,0.01665,-0.00334,-0.00333,0,0,190,-2,254,221,1,0.9981880903,1.615146955,0.002102060948,199495.4047,
223,0.01999,0.02332,0.02332,0.01999,0.09987,0.09943,0.10275,0.1032,191,224,255,-2,1,0.998239583,1.669162609,-0.2251514725,199510.0724,
224,0.01999,0.02332,0.02332,0.01999,0.09654,0.09612,0.09943,0.09987,192,225,256,223,0,0.998239583,1.670357744,-0.2161064722,199510.0724,
225,0.01999,0.02332,0.02332,0.01999,0.09321,0.09281,0.09612,0.09654,193,226,257,224,0,0.9982339502,1.667641591,-0.2080481871,199508.4825,
226,0.01999,0.02332,0.02332,0.01999,0.08988,0.08949,0.09281,0.09321,194,227,258,225,0,0.998228563,1.662952492,-0.1986960241,199506.9529,
227,0.01999,0.02332,0.02332,0.01999,0.08655,0.08618,0.08949,0.08988,195,228,259,226,0,0.9982242276,1.657169723,-0.1880603037,199505.7128,
228,0.01999,0.02332,0.02332,0.01999,0.08322,0.08286,0.08618,0.08655,196,229,260,227,0,0.9982194386,1.65195644,-0.1767027753,199504.3491,
229,0.01999,0.02332,0.02332,0.01999,0.0799,0.07955,0.08286,0.08322,197,230,261,228,0,0.9982156501,1.646636328,-0.1656556046,199503.265,
230,0.01999,0.02332,0.02332,0.01999,0.07657,0.07623,0.07955,0.0799,198,231,262,229,0,0.998211596,1.642467412,-0.154741154,199502.1119,