"cellnumber","cornerlocs_x","cornerlocs_y","adjacent_cells","edge_state","initial_conditions",
1,-1.4928,-0.612,-0.714,-1.5948,1.825,2.2654,2.643,2.2026,-2,2,9,-2,3,1,1,0,250000,
2,-1.3908,-0.51,-0.612,-1.4928,1.4475,1.8879,2.2654,1.825,-2,3,10,1,3,1,1,0,250000,
3,-1.2888,-0.408,-0.51,-1.3908,1.0699,1.5103,1.8879,1.4475,-2,4,11,2,3,1,1,0,250000,
4,-1.1868,-0.306,-0.408,-1.2888,0.69231,1.1327,1.5103,1.0699,-2,5,12,3,3,1,1,0,250000,
5,-1.0848,-0.204,-0.306,-1.1868,0.31474,0.75514,1.1327,0.69231,-2,6,13,4,3,1,1,0,250000,
6,-0.9828,-0.102,-0.204,-1.0848,-0.062829,0.37757,0.75514,0.31474,-2,7,14,5,3,1,1,0,250000,
7,-0.8808,0,-0.102,-0.9828,-0.4404,0,0.37757,-0.062829,-2,-2,15,6,3,1,1,0,250000,
8,-0.714,0.1668,0.0648,-0.816,2.643,3.0834,3.461,3.0206,-2,9,17,-2,1,1,1,0,250000,
9,-0.612,0.2688,0.1668,-0.714,2.2654,2.7058,3.0834,2.643,1,10,18,8,0,1,1,0,250000,
10,-0.51,0.3708,0.2688,-0.612,1.8879,2.3283,2.7058,2.2654,2,11,19,9,0,1,1,0,250000,
11,-0.408,0.4728,0.3708,-0.51,1.5103,1.9507,2.3283,1.8879,3,12,20,10,0,1,1,0,250000,
12,-0.306,0.5748,0.4728,-0.408,1.1327,1.5731,1.9507,1.5103,4,13,21,11,0,1,1,0,250000,
13,-0.204,0.6768,0.5748,-0.306,0.75514,1.1955,1.5731,1.1327,5,14,22,12,0,1,1,0,250000,
14,-0.102,0.7788,0.6768,-0.204,0.37757,0.81797,1.1955,0.75514,6,15,23,13,0,1,1,0,250000,
15,0,0.8808,0.7788,-0.102,0,0.4404,0.81797,0.37757,7,16,24,14,0,1,1,0,250000,
16,0.102,0.9828,0.8808,0,-0.37757,0.062829,0.4404,0,-2,-2,25,15,1,1,1,0,250000,
17,0.1668,1.0476,0.9456,0.0648,3.0834,3.5238,3.9014,3.461,8,18,26,-2,1,1,1,0,250000,
18,0.2688,1.1496,1.0476,0.1668,2.7058,3.1462,3.5238,3.0834,9,19,27,17,0,1,1,0,250000,
19,0.3708,1.2516,1.1496,0.2688,2.3283,2.7687,3.1462,2.7058,10,20,28,18,0,1,1,0,250000,
20,0.4728,1.3536,1.2516,0.3708,1.9507,2.3911,2.7687,2.3283,11,21,29,19,0,1,1,0,250000,
21,0.5748,1.4556,1.3536,0.4728,1.5731,2.0135,2.3911,1.9507,12,22,30,20,0,1,1,0,250000,
22,0.6768,1.5576,1.4556,0.5748,1.1955,1.6359,2.0135,1.5731,13,23,31,21,0,1,1,0,250000,
23,0.7788,1.6596,1.5576,0.6768,0.81797,1.2584,1.6359,1.1955,14,24,32,22,0,1,1,0,250000,
24,0.8808,1.7616,1.6596,0.7788,0.4404,0.8808,1.2584,0.81797,15,25,33,23,0,1,1,0,250000,
25,0.9828,1.8636,1.7616,0.8808,0.062829,0.50323,0.8808,0.4404,16,-2,34,24,1,1,1,0,250000,
26,1.0476,1.9284,1.8264,0.9456,3.5238,3.9642,4.3418,3.9014,17,27,-2,-2,1,1,1,0,250000,
27,1.1496,2.0304,1.9284,1.0476,3.1462,3.5866,3.9642,3.5238,18,28,35,26,0,1,1,0,250000,
28,1.2516,2.1324,2.0304,1.1496,2.7687,3.2091,3.5866,3.1462,19,29,36,27,0,1,1,0,250000,
29,1.3536,2.2344,2.1324,1.2516,2.3911,2.8315,3.2091,2.7687,20,30,37,28,0,1,1,0,250000,
30,1.4556,2.3364,2.2344,1.3536,2.0135,2.4539,2.8315,2.3911,21,31,38,29,0,1,1,0,250000,
31,1.5576,2.4384,2.3364,1.4556,1.6359,2.0763,2.4539,2.0135,22,32,39,30,0,1,1,0,250000,
32,1.6596,2.5404,2.4384,1.5576,1.2584,1.6988,2.0763,1.6359,23,33,40,31,0,1,1,0,250000,
33,1.7616,2.6424,2.5404,1.6596,0.8808,1.3212,1.6988,1.2584,24,34,41,32,0,1,1,0,250000,
34,1.8636,2.7444,2.6424,1.7616,0.50323,0.94363,1.3212,0.8808,25,-2,-2,33,1,1,1,0,250000,
35,2.0304,2.9112,2.8092,1.9284,3.5866,4.027,4.4046,3.9642,27,36,-2,-2,2,1,1,0,250000,
36,2.1324,3.0132,2.9112,2.0304,3.2091,3.6495,4.027,3.5866,28,37,-2,35,2,1,1,0,250000,
37,2.2344,3.1152,3.0132,2.1324,2.8315,3.2719,3.6495,3.2091,29,38,-2,36,2,1,1,0,250000,
38,2.3364,3.2172,3.1152,2.2344,2.4539,2.8943,3.2719,2.8315,30,39,-2,37,2,1,1,0,250000,
39,2.4384,3.3192,3.2172,2.3364,2.0763,2.5167,2.8943,2.4539,31,40,-2,38,2,1,1,0,250000,
40,2.5404,3.4212,3.3192,2.4384,1.6988,2.1392,2.5167,2.0763,32,41,-2,39,2,1,1,0,250000,
41,2.6424,3.5232,3.4212,2.5404,1.3212,1.7616,2.1392,1.6988,33,-2,-2,40,2,1,1,0,250000,

