'cellnumber','cornerlocs_x','cornerlocs_y','adjacent_cells','edge_state','initial_conditions'
1,-0.0033,0,0,-0.0033,0.0993,0.0989,0.1023,0.1027,-2,2,32,-2,3,1,1,0,250000,
2,-0.0033,0,0,-0.0033,0.0958,0.0955,0.0989,0.0993,-2,3,33,1,3,1,1,0,250000,
3,-0.0033,0,0,-0.0033,0.0924,0.0921,0.0955,0.0958,-2,4,34,2,3,1,1,0,250000,
4,-0.0033,0,0,-0.0033,0.089,0.0887,0.0921,0.0924,-2,5,35,3,3,1,1,0,250000,
5,-0.0033,0,0,-0.0033,0.0856,0.0853,0.0887,0.089,-2,6,36,4,3,1,1,0,250000,
6,-0.0033,0,0,-0.0033,0.0821,0.0818,0.0853,0.0856,-2,7,37,5,3,1,1,0,250000,
7,-0.0033,0,0,-0.0033,0.0787,0.0784,0.0818,0.0821,-2,8,38,6,3,1,1,0,250000,
8,-0.0033,0,0,-0.0033,0.0753,0.075,0.0784,0.0787,-2,9,39,7,3,1,1,0,250000,
9,-0.0033,0,0,-0.0033,0.0719,0.0716,0.075,0.0753,-2,10,40,8,3,1,1,0,250000,
10,-0.0033,0,0,-0.0033,0.0685,0.0682,0.0716,0.0719,-2,11,41,9,3,1,1,0,250000,
11,-0.0033,0,0,-0.0033,0.065,0.0648,0.0682,0.0685,-2,12,42,10,3,1,1,0,250000,
12,-0.0033,0,0,-0.0033,0.0616,0.0614,0.0648,0.065,-2,13,43,11,3,1,1,0,250000,
13,-0.0033,0,0,-0.0033,0.0582,0.058,0.0614,0.0616,-2,14,44,12,3,1,1,0,250000,
14,-0.0033,0,0,-0.0033,0.0548,0.0546,0.058,0.0582,-2,15,45,13,3,1,1,0,250000,
15,-0.0033,0,0,-0.0033,0.0513,0.0512,0.0546,0.0548,-2,16,46,14,3,1,1,0,250000,
16,-0.0033,0,0,-0.0033,0.0479,0.0477,0.0512,0.0513,-2,17,47,15,3,1,1,0,250000,
17,-0.0033,0,0,-0.0033,0.0445,0.0443,0.0477,0.0479,-2,18,48,16,3,1,1,0,250000,
18,-0.0033,0,0,-0.0033,0.0411,0.0409,0.0443,0.0445,-2,19,49,17,3,1,1,0,250000,
19,-0.0033,0,0,-0.0033,0.0376,0.0375,0.0409,0.0411,-2,20,50,18,3,1,1,0,250000,
20,-0.0033,0,0,-0.0033,0.0342,0.0341,0.0375,0.0376,-2,21,51,19,3,1,1,0,250000,
21,-0.0033,0,0,-0.0033,0.0308,0.0307,0.0341,0.0342,-2,22,52,20,3,1,1,0,250000,
22,-0.0033,0,0,-0.0033,0.0274,0.0273,0.0307,0.0308,-2,23,53,21,3,1,1,0,250000,
23,-0.0033,0,0,-0.0033,0.024,0.0239,0.0273,0.0274,-2,24,54,22,3,1,1,0,250000,
24,-0.0033,0,0,-0.0033,0.0205,0.0205,0.0239,0.024,-2,25,55,23,3,1,1,0,250000,
25,-0.0033,0,0,-0.0033,0.0171,0.0171,0.0205,0.0205,-2,26,56,24,3,1,1,0,250000,
26,-0.0033,0,0,-0.0033,0.0137,0.0136,0.0171,0.0171,-2,27,57,25,3,1,1,0,250000,
27,-0.0033,0,0,-0.0033,0.0103,0.0102,0.0136,0.0137,-2,28,58,26,3,1,1,0,250000,
28,-0.0033,0,0,-0.0033,0.0068,0.0068,0.0102,0.0103,-2,29,59,27,3,1,1,0,250000,
29,-0.0033,0,0,-0.0033,0.0034,0.0034,0.0068,0.0068,-2,30,60,28,3,1,1,0,250000,
30,-0.0033,0,0,-0.0033,0,0,0.0034,0.0034,-2,-2,61,29,3,1,1,0,250000,
31,0,0.0033,0.0033,0,0.1023,0.1019,0.1053,0.1057,-2,32,63,-2,1,0.9976391511,1.927829092,-0.3030757636,249178.7707,
32,0,0.0033,0.0033,0,0.0989,0.0985,0.1019,0.1023,1,33,64,31,0,0.9976391511,1.944409609,-0.1662865032,249178.7707,
33,0,0.0033,0.0033,0,0.0955,0.0951,0.0985,0.0989,2,34,65,32,0,0.9975476227,1.951277819,-0.1196150703,249146.8207,
34,0,0.0033,0.0033,0,0.0921,0.0917,0.0951,0.0955,3,35,66,33,0,0.9975069895,1.950270994,-0.09072041765,249132.6267,
35,0,0.0033,0.0033,0,0.0887,0.0883,0.0917,0.0921,4,36,67,34,0,0.9974795963,1.950563452,-0.07467152108,249123.0653,
36,0,0.0033,0.0033,0,0.0853,0.0849,0.0883,0.0887,5,37,68,35,0,0.9974603954,1.951369065,-0.06478249439,249116.3619,
37,0,0.0033,0.0033,0,0.0818,0.0815,0.0849,0.0853,6,38,69,36,0,0.997450465,1.952519172,-0.05143006487,249112.897,
38,0,0.0033,0.0033,0,0.0784,0.0781,0.0815,0.0818,7,39,70,37,0,0.9974421414,1.953996152,-0.04104412252,249110.0013,
39,0,0.0033,0.0033,0,0.075,0.0747,0.0781,0.0784,8,40,71,38,0,0.9974389028,1.955284779,-0.03767638872,249108.8824,
40,0,0.0033,0.0033,0,0.0716,0.0713,0.0747,0.075,9,41,72,39,0,0.9974366098,1.95560688,-0.03441257383,249108.0844,
41,0,0.0033,0.0033,0,0.0682,0.0679,0.0713,0.0716,10,42,73,40,0,0.9974318664,1.956538159,-0.03237421275,249106.4321,
42,0,0.0033,0.0033,0,0.0648,0.0645,0.0679,0.0682,11,43,74,41,0,0.9974257667,1.958097765,-0.03124766422,249104.3063,
43,0,0.0033,0.0033,0,0.0614,0.0612,0.0645,0.0648,12,44,75,42,0,0.9974247167,1.958679539,-0.02618163966,249103.9391,
44,0,0.0033,0.0033,0,0.058,0.0578,0.0612,0.0614,13,45,76,43,0,0.9974196633,1.95987459,-0.02162822612,249102.1832,
45,0,0.0033,0.0033,0,0.0546,0.0544,0.0578,0.058,14,46,77,44,0,0.9974202007,1.959856552,-0.02162422646,249102.3737,
46,0,0.0033,0.0033,0,0.0512,0.051,0.0544,0.0546,15,47,78,45,0,0.9974166831,1.961843613,-0.021145456,249101.1549,
47,0,0.0033,0.0033,0,0.0477,0.0476,0.051,0.0512,16,48,79,46,0,0.99741637,1.962451851,-0.01713670949,249101.0473,
48,0,0.0033,0.0033,0,0.0443,0.0442,0.0476,0.0477,17,49,80,47,0,0.9974149872,1.962284902,-0.01372747389,249100.5653,
49,0,0.0033,0.0033,0,0.0409,0.0408,0.0442,0.0443,18,50,81,48,0,0.9974162627,1.961466797,-0.01353000541,249101.0088,
50,0,0.0033,0.0033,0,0.0375,0.0374,0.0408,0.0409,19,51,82,49,0,0.9974163503,1.961561779,-0.01284774629,249101.0406,
51,0,0.0033,0.0033,0,0.0341,0.034,0.0374,0.0375,20,52,83,50,0,0.9974156067,1.962056137,-0.01201809082,249100.7838,
52,0,0.0033,0.0033,0,0.0307,0.0306,0.034,0.0341,21,53,84,51,0,0.9974136834,1.962887786,-0.01068939301,249100.1167,
53,0,0.0033,0.0033,0,0.0273,0.0272,0.0306,0.0307,22,54,85,52,0,0.9974137518,1.962672023,-0.009394905763,249100.1391,
54,0,0.0033,0.0033,0,0.0239,0.0238,0.0272,0.0273,23,55,86,53,0,0.9974128607,1.96271625,-0.008662342,249099.8277,
55,0,0.0033,0.0033,0,0.0205,0.0204,0.0238,0.0239,24,56,87,54,0,0.9974112307,1.963195666,-0.008225132851,249099.2602,
56,0,0.0033,0.0033,0,0.0171,0.017,0.0204,0.0205,25,57,88,55,0,0.9974082283,1.964793655,-0.008229555055,249098.2178,
57,0,0.0033,0.0033,0,0.0136,0.0136,0.017,0.0171,26,58,89,56,0,0.9974075422,1.965731855,-0.00515864539,249097.9813,
58,0,0.0033,0.0033,0,0.0102,0.0102,0.0136,0.0136,27,59,90,57,0,0.9974058254,1.965883248,-0.001720436068,249097.3845,
59,0,0.0033,0.0033,0,0.0068,0.0068,0.0102,0.0102,28,60,91,58,0,0.9974090884,1.964103287,-0.001354309908,249098.5166,
60,0,0.0033,0.0033,0,0.0034,0.0034,0.0068,0.0068,29,61,92,59,0,0.9974101044,1.96365639,-0.0009336446307,249098.8699,
61,0,0.0033,0.0033,0,0,0,0.0034,0.0034,30,62,93,60,0,0.9974106676,1.963479524,-0.0003114517248,249099.0658,
62,0,0.0033,0.0033,0,-0.0034,-0.0034,0,0,-2,-2,94,61,1,0.9974106676,1.963479524,0.0003114517248,249099.0658,
63,0.0033,0.0067,0.0067,0.0033,0.1019,0.1015,0.1049,0.1053,31,64,95,-2,1,0.9975342254,1.991868459,-0.2565567459,249142.4232,
64,0.0033,0.0067,0.0067,0.0033,0.0985,0.0981,0.1015,0.1019,32,65,96,63,0,0.9975342254,1.997025152,-0.2127248554,249142.4232,
65,0.0033,0.0067,0.0067,0.0033,0.0951,0.0948,0.0981,0.0985,33,66,97,64,0,0.997515306,1.981963101,-0.1754143077,249135.7142,
66,0.0033,0.0067,0.0067,0.0033,0.0917,0.0914,0.0948,0.0951,34,67,98,65,0,0.9974798239,1.97717165,-0.1452142118,249123.3013,
67,0.0033,0.0067,0.0067,0.0033,0.0883,0.088,0.0914,0.0917,35,68,99,66,0,0.9974657854,1.972408608,-0.1272674868,249118.3838,
68,0.0033,0.0067,0.0067,0.0033,0.0849,0.0846,0.088,0.0883,36,69,100,67,0,0.9974537283,1.968133986,-0.1109795388,249114.1492,
69,0.0033,0.0067,0.0067,0.0033,0.0815,0.0812,0.0846,0.0849,37,70,101,68,0,0.9974407901,1.963040714,-0.0955643107,249109.5991,
70,0.0033,0.0067,0.0067,0.0033,0.0781,0.0778,0.0812,0.0815,38,71,102,69,0,0.997435539,1.963668474,-0.08387960097,249107.7715,
71,0.0033,0.0067,0.0067,0.0033,0.0747,0.0745,0.0778,0.0781,39,72,103,70,0,0.9974297204,1.96392847,-0.07380349065,249105.7423,
72,0.0033,0.0067,0.0067,0.0033,0.0713,0.0711,0.0745,0.0747,40,73,104,71,0,0.9974235582,1.964919303,-0.06546944611,249103.5958,
73,0.0033,0.0067,0.0067,0.0033,0.0679,0.0677,0.0711,0.0713,41,74,105,72,0,0.9974208111,1.9658911,-0.06029565983,249102.6398,
74,0.0033,0.0067,0.0067,0.0033,0.0645,0.0643,0.0677,0.0679,42,75,106,73,0,0.997419591,1.96639036,-0.0549269409,249102.2119,
75,0.0033,0.0067,0.0067,0.0033,0.0612,0.0609,0.0643,0.0645,43,76,107,74,0,0.9974143738,1.966276906,-0.05067149792,249100.3848,
76,0.0033,0.0067,0.0067,0.0033,0.0578,0.0575,0.0609,0.0612,44,77,108,75,0,0.9974144282,1.966754341,-0.04674395937,249100.4078,
77,0.0033,0.0067,0.0067,0.0033,0.0544,0.0541,0.0575,0.0578,45,78,109,76,0,0.9974100575,1.96693674,-0.04288289962,249098.8835,
78,0.0033,0.0067,0.0067,0.0033,0.051,0.0508,0.0541,0.0544,46,79,110,77,0,0.9974092641,1.967054136,-0.03847354686,249098.6053,
79,0.0033,0.0067,0.0067,0.0033,0.0476,0.0474,0.0508,0.051,47,80,111,78,0,0.9974064676,1.967440787,-0.03384616649,249097.6286,
80,0.0033,0.0067,0.0067,0.0033,0.0442,0.044,0.0474,0.0476,48,81,112,79,0,0.9974058069,1.968124946,-0.03072649123,249097.4037,
81,0.0033,0.0067,0.0067,0.0033,0.0408,0.0406,0.044,0.0442,49,82,113,80,0,0.9974034428,1.968707756,-0.02817593275,249096.583,
82,0.0033,0.0067,0.0067,0.0033,0.0374,0.0372,0.0406,0.0408,50,83,114,81,0,0.9974022024,1.968956619,-0.0257458579,249096.1516,
83,0.0033,0.0067,0.0067,0.0033,0.034,0.0338,0.0372,0.0374,51,84,115,82,0,0.9974003387,1.969337703,-0.02369379195,249095.5028,
84,0.0033,0.0067,0.0067,0.0033,0.0306,0.0305,0.0338,0.034,52,85,116,83,0,0.9974012707,1.968953722,-0.02083244012,249095.8252,
85,0.0033,0.0067,0.0067,0.0033,0.0272,0.0271,0.0305,0.0306,53,86,117,84,0,0.9973983162,1.96988133,-0.01804576207,249094.7985,
86,0.0033,0.0067,0.0067,0.0033,0.0238,0.0237,0.0271,0.0272,54,87,118,85,0,0.9973984368,1.969865528,-0.01621914382,249094.8396,
87,0.0033,0.0067,0.0067,0.0033,0.0204,0.0203,0.0237,0.0238,55,88,119,86,0,0.9973980825,1.970058717,-0.01443614589,249094.7154,
88,0.0033,0.0067,0.0067,0.0033,0.017,0.0169,0.0203,0.0204,56,89,120,87,0,0.9973978188,1.970506305,-0.01249886884,249094.6234,
89,0.0033,0.0067,0.0067,0.0033,0.0136,0.0135,0.0169,0.017,57,90,121,88,0,0.9973972227,1.970446485,-0.01004984246,249094.412,
90,0.0033,0.0067,0.0067,0.0033,0.0102,0.0102,0.0135,0.0136,58,91,122,89,0,0.9973975714,1.970346452,-0.006809400132,249094.535,
91,0.0033,0.0067,0.0067,0.0033,0.0068,0.0068,0.0102,0.0102,59,92,123,90,0,0.9973954727,1.970653672,-0.004320577701,249093.8061,
92,0.0033,0.0067,0.0067,0.0033,0.0034,0.0034,0.0068,0.0068,60,93,124,91,0,0.9973954465,1.970780154,-0.002644144454,249093.7988,
93,0.0033,0.0067,0.0067,0.0033,0,0,0.0034,0.0034,61,94,125,92,0,0.9973958606,1.97066758,-0.0008304285977,249093.9431,
94,0.0033,0.0067,0.0067,0.0033,-0.0034,-0.0034,0,0,62,-2,126,93,1,0.9973958606,1.97066758,0.0008304285977,249093.9431,
95,0.0067,0.01,0.01,0.0067,0.1015,0.1011,0.1045,0.1049,63,96,127,-2,1,0.9975247282,2.013407601,-0.2640340713,249139.2367,
96,0.0067,0.01,0.01,0.0067,0.0981,0.0978,0.1011,0.1015,64,97,128,95,0,0.9975247282,2.018182218,-0.2246434826,249139.2367,
97,0.0067,0.01,0.01,0.0067,0.0948,0.0944,0.0978,0.0981,65,98,129,96,0,0.9974911311,2.005173044,-0.2052983657,249127.4271,
98,0.0067,0.01,0.01,0.0067,0.0914,0.091,0.0944,0.0948,66,99,130,97,0,0.9974855756,1.997700605,-0.1915138858,249125.4578,
99,0.0067,0.01,0.01,0.0067,0.088,0.0876,0.091,0.0914,67,100,131,98,0,0.9974602354,1.989701159,-0.1691011046,249116.5681,
100,0.0067,0.01,0.01,0.0067,0.0846,0.0843,0.0876,0.088,68,101,132,99,0,0.9974571162,1.978397488,-0.1476644696,249115.4115,
101,0.0067,0.01,0.01,0.0067,0.0812,0.0809,0.0843,0.0846,69,102,133,100,0,0.9974379878,1.976129579,-0.1297797386,249108.7182,
102,0.0067,0.01,0.01,0.0067,0.0778,0.0775,0.0809,0.0812,70,103,134,101,0,0.9974342272,1.974488755,-0.1166400847,249107.3948,
103,0.0067,0.01,0.01,0.0067,0.0745,0.0742,0.0775,0.0778,71,104,135,102,0,0.9974279999,1.971537294,-0.1052218572,249105.2028,
104,0.0067,0.01,0.01,0.0067,0.0711,0.0708,0.0742,0.0745,72,105,136,103,0,0.9974246732,1.972623956,-0.09550010148,249104.0449,
105,0.0067,0.01,0.01,0.0067,0.0677,0.0674,0.0708,0.0711,73,106,137,104,0,0.9974198104,1.973382997,-0.08727432013,249102.3482,
106,0.0067,0.01,0.01,0.0067,0.0643,0.064,0.0674,0.0677,74,107,138,105,0,0.9974154825,1.973351886,-0.07980245818,249100.8331,
107,0.0067,0.01,0.01,0.0067,0.0609,0.0607,0.064,0.0643,75,108,139,106,0,0.9974165796,1.972714741,-0.07252184111,249101.2079,
108,0.0067,0.01,0.01,0.0067,0.0575,0.0573,0.0607,0.0609,76,109,140,107,0,0.9974098398,1.972787766,-0.06589913507,249098.8542,
109,0.0067,0.01,0.01,0.0067,0.0541,0.0539,0.0573,0.0575,77,110,141,108,0,0.9974087523,1.97207863,-0.06043002902,249098.469,
110,0.0067,0.01,0.01,0.0067,0.0508,0.0506,0.0539,0.0541,78,111,142,109,0,0.9974080383,1.970698683,-0.05547334553,249098.21,
111,0.0067,0.01,0.01,0.0067,0.0474,0.0472,0.0506,0.0508,79,112,143,110,0,0.9974058594,1.971741119,-0.05073328511,249097.4535,
112,0.0067,0.01,0.01,0.0067,0.044,0.0438,0.0472,0.0474,80,113,144,111,0,0.9974039059,1.971987625,-0.04623116398,249096.7725,
113,0.0067,0.01,0.01,0.0067,0.0406,0.0405,0.0438,0.044,81,114,145,112,0,0.9974035379,1.971621175,-0.04158989651,249096.6415,
114,0.0067,0.01,0.01,0.0067,0.0372,0.0371,0.0405,0.0406,82,115,146,113,0,0.9974008394,1.972515898,-0.03725921218,249095.7041,
115,0.0067,0.01,0.01,0.0067,0.0338,0.0337,0.0371,0.0372,83,116,147,114,0,0.9974004005,1.972938532,-0.03323233779,249095.5523,
116,0.0067,0.01,0.01,0.0067,0.0305,0.0303,0.0337,0.0338,84,117,148,115,0,0.9973987483,1.972273583,-0.03056690874,249094.9711,
117,0.0067,0.01,0.01,0.0067,0.0271,0.027,0.0303,0.0305,85,118,149,116,0,0.997400136,1.972087319,-0.02763606475,249095.4533,
118,0.0067,0.01,0.01,0.0067,0.0237,0.0236,0.027,0.0271,86,119,150,117,0,0.9973970983,1.9729343,-0.02373172347,249094.3965,
119,0.0067,0.01,0.01,0.0067,0.0203,0.0202,0.0236,0.0237,87,120,151,118,0,0.9973964266,1.973151229,-0.02064343493,249094.1617,
120,0.0067,0.01,0.01,0.0067,0.0169,0.0169,0.0202,0.0203,88,121,152,119,0,0.9973976957,1.972949616,-0.01703834757,249094.6017,
121,0.0067,0.01,0.01,0.0067,0.0135,0.0135,0.0169,0.0169,89,122,153,120,0,0.9973967889,1.973588218,-0.01325432972,249094.2873,
122,0.0067,0.01,0.01,0.0067,0.0102,0.0101,0.0135,0.0135,90,123,154,121,0,0.997395377,1.973720097,-0.01067626352,249093.7954,
123,0.0067,0.01,0.01,0.0067,0.0068,0.0067,0.0101,0.0102,91,124,155,122,0,0.9973956201,1.973549881,-0.008229198338,249093.88,
124,0.0067,0.01,0.01,0.0067,0.0034,0.0034,0.0067,0.0068,92,125,156,123,0,0.9973956432,1.973041838,-0.004674866376,249093.8858,
125,0.0067,0.01,0.01,0.0067,0,0,0.0034,0.0034,93,126,157,124,0,0.9973939483,1.973507548,-0.001356151615,249093.2972,
126,0.0067,0.01,0.01,0.0067,-0.0034,-0.0034,0,0,94,-2,158,125,1,0.9973939483,1.973507548,0.001356151615,249093.2972,
127,0.01,0.0133,0.0133,0.01,0.1011,0.1007,0.1041,0.1045,95,128,159,-2,1,0.9974947486,2.030300552,-0.255159748,249128.8793,
128,0.01,0.0133,0.0133,0.01,0.0978,0.0974,0.1007,0.1011,96,129,160,127,0,0.9974947486,2.032465761,-0.2372967748,249128.8793,
129,0.01,0.0133,0.0133,0.01,0.0944,0.094,0.0974,0.0978,97,130,161,128,0,0.997490758,2.030182061,-0.226398902,249127.4726,
130,0.01,0.0133,0.0133,0.01,0.091,0.0906,0.094,0.0944,98,131,162,129,0,0.9974640415,2.016634189,-0.2138198368,249118.0722,
131,0.01,0.0133,0.0133,0.01,0.0876,0.0873,0.0906,0.091,99,132,163,130,0,0.997465603,2.001085413,-0.1902269278,249118.5243,
132,0.01,0.0133,0.0133,0.01,0.0843,0.0839,0.0873,0.0876,100,133,164,131,0,0.9974369395,1.992915857,-0.1740651991,249108.4717,
133,0.01,0.0133,0.0133,0.01,0.0809,0.0806,0.0839,0.0843,101,134,165,132,0,0.9974472381,1.98620857,-0.1620322397,249112.0261,
134,0.01,0.0133,0.0133,0.01,0.0775,0.0772,0.0806,0.0809,102,135,166,133,0,0.9974301963,1.986975761,-0.1445273314,249106.0775,
135,0.01,0.0133,0.0133,0.01,0.0742,0.0739,0.0772,0.0775,103,136,167,134,0,0.9974293022,1.983069405,-0.131894389,249105.7396,
136,0.01,0.0133,0.0133,0.01,0.0708,0.0705,0.0739,0.0742,104,137,168,135,0,0.9974234472,1.98286447,-0.1214988407,249103.6911,
137,0.01,0.0133,0.0133,0.01,0.0674,0.0671,0.0705,0.0708,105,138,169,136,0,0.9974168647,1.982462138,-0.1105381838,249101.3865,
138,0.01,0.0133,0.0133,0.01,0.064,0.0638,0.0671,0.0674,106,139,170,137,0,0.9974199981,1.978859742,-0.09964865818,249102.4546,
139,0.01,0.0133,0.0133,0.01,0.0607,0.0604,0.0638,0.064,107,140,171,138,0,0.9974088681,1.97902815,-0.09249288456,249098.5673,
140,0.01,0.0133,0.0133,0.01,0.0573,0.0571,0.0604,0.0607,108,141,172,139,0,0.9974139462,1.977270128,-0.08565998447,249100.3264,
141,0.01,0.0133,0.0133,0.01,0.0539,0.0537,0.0571,0.0573,109,142,173,140,0,0.9974060024,1.978334446,-0.07704335712,249097.5567,
142,0.01,0.0133,0.0133,0.01,0.0506,0.0504,0.0537,0.0539,110,143,174,141,0,0.9974088564,1.976224111,-0.07145716611,249098.5383,
143,0.01,0.0133,0.0133,0.01,0.0472,0.047,0.0504,0.0506,111,144,175,142,0,0.9974040014,1.977907446,-0.06610786206,249096.8511,
144,0.01,0.0133,0.0133,0.01,0.0438,0.0436,0.047,0.0472,112,145,176,143,0,0.9974025921,1.977508666,-0.05916080398,249096.355,
145,0.01,0.0133,0.0133,0.01,0.0405,0.0403,0.0436,0.0438,113,146,177,144,0,0.9974028016,1.975293493,-0.05419963523,249096.4144,
146,0.01,0.0133,0.0133,0.01,0.0371,0.0369,0.0403,0.0405,114,147,178,145,0,0.9973982524,1.977095279,-0.04966512382,249094.8354,
147,0.01,0.0133,0.0133,0.01,0.0337,0.0336,0.0369,0.0371,115,148,179,146,0,0.9973998311,1.976587376,-0.04369402682,249095.3819,
148,0.01,0.0133,0.0133,0.01,0.0303,0.0302,0.0336,0.0337,116,149,180,147,0,0.9973964365,1.977713002,-0.03851471482,249094.2021,
149,0.01,0.0133,0.0133,0.01,0.027,0.0269,0.0302,0.0303,117,150,181,148,0,0.9973978567,1.9758186,-0.03504866103,249094.6859,
150,0.01,0.0133,0.0133,0.01,0.0236,0.0235,0.0269,0.027,118,151,182,149,0,0.9973956024,1.977438294,-0.03104565051,249093.9066,
151,0.01,0.0133,0.0133,0.01,0.0202,0.0201,0.0235,0.0236,119,152,183,150,0,0.9973951507,1.97746784,-0.02590909483,249093.7475,
152,0.01,0.0133,0.0133,0.01,0.0169,0.0168,0.0201,0.0202,120,153,184,151,0,0.9973964814,1.975966407,-0.02212402708,249094.2023,
153,0.01,0.0133,0.0133,0.01,0.0135,0.0134,0.0168,0.0169,121,154,185,152,0,0.9973933312,1.977619629,-0.01857707924,249093.1109,
154,0.01,0.0133,0.0133,0.01,0.0101,0.0101,0.0134,0.0135,122,155,186,153,0,0.9973960288,1.977463473,-0.01394742537,249094.0509,
155,0.01,0.0133,0.0133,0.01,0.0067,0.0067,0.0101,0.0101,123,156,187,154,0,0.9973922593,1.977560306,-0.009369735052,249092.736,
156,0.01,0.0133,0.0133,0.01,0.0034,0.0034,0.0067,0.0067,124,157,188,155,0,0.9973945959,1.97596738,-0.005953964065,249093.5428,
157,0.01,0.0133,0.0133,0.01,0,0,0.0034,0.0034,125,158,189,156,0,0.9973927531,1.977523897,-0.002368712702,249092.9084,
158,0.01,0.0133,0.0133,0.01,-0.0034,-0.0034,0,0,126,-2,190,157,1,0.9973927531,1.977523897,0.002368712702,249092.9084,
159,0.0133,0.0167,0.0167,0.0133,0.1007,0.1003,0.1036,0.1041,127,160,191,-2,1,0.9974674947,2.040563992,-0.2382051308,249119.4338,
160,0.0133,0.0167,0.0167,0.0133,0.0974,0.097,0.1003,0.1007,128,161,192,159,0,0.9974674947,2.040132036,-0.2418767549,249119.4338,
161,0.0133,0.0167,0.0167,0.0133,0.094,0.0936,0.097,0.0974,129,162,193,160,0,0.9974670663,2.035928821,-0.2382967156,249119.26,
162,0.0133,0.0167,0.0167,0.0133,0.0906,0.0903,0.0936,0.094,130,163,194,161,0,0.9974639184,2.024840616,-0.2235846961,249118.093,
163,0.0133,0.0167,0.0167,0.0133,0.0873,0.0869,0.0903,0.0906,131,164,195,162,0,0.997441234,2.01403603,-0.2092155854,249110.1118,
164,0.0133,0.0167,0.0167,0.0133,0.0839,0.0836,0.0869,0.0873,132,165,196,163,0,0.9974579864,2.007348768,-0.196619219,249115.9179,
165,0.0133,0.0167,0.0167,0.0133,0.0806,0.0802,0.0836,0.0839,133,166,197,164,0,0.9974291282,2.001647252,-0.1840007156,249105.8111,
166,0.0133,0.0167,0.0167,0.0133,0.0772,0.0769,0.0802,0.0806,134,167,198,165,0,0.9974346611,1.99685081,-0.1697183129,249107.7101,
167,0.0133,0.0167,0.0167,0.0133,0.0739,0.0736,0.0769,0.0772,135,168,199,166,0,0.9974282329,1.993232597,-0.1541658526,249105.44,
168,0.0133,0.0167,0.0167,0.0133,0.0705,0.0702,0.0736,0.0739,136,169,200,167,0,0.9974189753,1.99361669,-0.1439145874,249102.2068,
169,0.0133,0.0167,0.0167,0.0133,0.0671,0.0669,0.0702,0.0705,137,170,201,168,0,0.9974207269,1.990641012,-0.1284043239,249102.7943,
170,0.0133,0.0167,0.0167,0.0133,0.0638,0.0635,0.0669,0.0671,138,171,202,169,0,0.9974119264,1.988451661,-0.1185814557,249099.7057,
171,0.0133,0.0167,0.0167,0.0133,0.0604,0.0602,0.0635,0.0638,139,172,203,170,0,0.9974172224,1.98812218,-0.1105012031,249101.5474,
172,0.0133,0.0167,0.0167,0.0133,0.0571,0.0568,0.0602,0.0604,140,173,204,171,0,0.9974066573,1.986444395,-0.101944352,249097.8468,
173,0.0133,0.0167,0.0167,0.0133,0.0537,0.0535,0.0568,0.0571,141,174,205,172,0,0.9974105332,1.985212421,-0.09316362783,249099.1884,
174,0.0133,0.0167,0.0167,0.0133,0.0504,0.0501,0.0535,0.0537,142,175,206,173,0,0.9974039164,1.9846724,-0.0866150374,249096.873,
175,0.0133,0.0167,0.0167,0.0133,0.047,0.0468,0.0501,0.0504,143,176,207,174,0,0.9974044767,1.983323762,-0.08104728909,249097.0583,
176,0.0133,0.0167,0.0167,0.0133,0.0436,0.0435,0.0468,0.047,144,177,208,175,0,0.997402291,1.982852309,-0.06994092049,249096.2893,
177,0.0133,0.0167,0.0167,0.0133,0.0403,0.0401,0.0435,0.0436,145,178,209,176,0,0.9973985521,1.98269787,-0.06493952222,249094.9817,
178,0.0133,0.0167,0.0167,0.0133,0.0369,0.0368,0.0401,0.0403,146,179,210,177,0,0.9974011114,1.982336298,-0.05975604792,249095.8709,
179,0.0133,0.0167,0.0167,0.0133,0.0336,0.0334,0.0368,0.0369,147,180,211,178,0,0.9973959464,1.982267804,-0.05315442611,249094.066,
180,0.0133,0.0167,0.0167,0.0133,0.0302,0.0301,0.0334,0.0336,148,181,212,179,0,0.9973989701,1.98225561,-0.04714075666,249095.1192,
181,0.0133,0.0167,0.0167,0.0133,0.0269,0.0267,0.0301,0.0302,149,182,213,180,0,0.9973944822,1.982186746,-0.04279165957,249093.5511,
182,0.0133,0.0167,0.0167,0.0133,0.0235,0.0234,0.0267,0.0269,150,183,214,181,0,0.9973956299,1.981745305,-0.03862101214,249093.9474,
183,0.0133,0.0167,0.0167,0.0133,0.0201,0.0201,0.0234,0.0235,151,184,215,182,0,0.9973947799,1.981709855,-0.0302715635,249093.6487,
184,0.0133,0.0167,0.0167,0.0133,0.0168,0.0167,0.0201,0.0201,152,185,216,183,0,0.99739248,1.981962145,-0.02635872288,249092.8463,
185,0.0133,0.0167,0.0167,0.0133,0.0134,0.0134,0.0167,0.0168,153,186,217,184,0,0.9973951792,1.981864326,-0.02223850473,249093.7866,
186,0.0133,0.0167,0.0167,0.0133,0.0101,0.01,0.0134,0.0134,154,187,218,185,0,0.9973914541,1.981974028,-0.0168940126,249092.4864,
187,0.0133,0.0167,0.0167,0.0133,0.0067,0.0067,0.01,0.0101,155,188,219,186,0,0.997394324,1.981743755,-0.01159498549,249093.4863,
188,0.0133,0.0167,0.0167,0.0133,0.0034,0.0033,0.0067,0.0067,156,189,220,187,0,0.9973910121,1.981805133,-0.007605946825,249092.3308,
189,0.0133,0.0167,0.0167,0.0133,0,0,0.0033,0.0034,157,190,221,188,0,0.9973926114,1.981550206,-0.003872593069,249092.8873,
190,0.0133,0.0167,0.0167,0.0133,-0.0034,-0.0033,0,0,158,-2,222,189,1,0.9973926114,1.981550206,0.003872593069,249092.8873,
191,0.0167,0.02,0.02,0.0167,0.1003,0.0999,0.1032,0.1036,159,192,223,-2,1,0.9974543197,2.041686193,-0.2407039091,249114.8616,
192,0.0167,0.02,0.02,0.0167,0.097,0.0965,0.0999,0.1003,160,193,224,191,0,0.9974543197,2.040067979,-0.2540541724,249114.8616,
193,0.0167,0.02,0.02,0.0167,0.0936,0.0932,0.0965,0.097,161,194,225,192,0,0.997459448,2.037699747,-0.2492736984,249116.6344,
194,0.0167,0.02,0.02,0.0167,0.0903,0.0899,0.0932,0.0936,162,195,226,193,0,0.9974468556,2.030286559,-0.2381833818,249112.1912,
195,0.0167,0.02,0.02,0.0167,0.0869,0.0866,0.0899,0.0903,163,196,227,194,0,0.9974532111,2.028461148,-0.2227415149,249114.3918,
196,0.0167,0.02,0.02,0.0167,0.0836,0.0832,0.0866,0.0869,164,197,228,195,0,0.9974291232,2.020471049,-0.2130288705,249105.9369,
197,0.0167,0.02,0.02,0.0167,0.0802,0.0799,0.0832,0.0836,165,198,229,196,0,0.9974447226,2.013342294,-0.2024411059,249111.3367,
198,0.0167,0.02,0.02,0.0167,0.0769,0.0766,0.0799,0.0802,166,199,230,197,0,0.9974259391,2.007765373,-0.1847026459,249104.7422,
199,0.0167,0.02,0.02,0.0167,0.0736,0.0732,0.0766,0.0769,167,200,231,198,0,0.9974212206,2.007085612,-0.1749499852,249103.0871,
200,0.0167,0.02,0.02,0.0167,0.0702,0.0699,0.0732,0.0736,168,201,232,199,0,0.99742351,2.002353516,-0.1623825566,249103.8533,
201,0.0167,0.02,0.02,0.0167,0.0669,0.0666,0.0699,0.0702,169,202,233,200,0,0.9974140738,1.999013488,-0.1459432579,249100.5334,
202,0.0167,0.02,0.02,0.0167,0.0635,0.0632,0.0666,0.0669,170,203,234,201,0,0.9974132478,2.000268481,-0.1357159132,249100.2463,
203,0.0167,0.02,0.02,0.0167,0.0602,0.0599,0.0632,0.0635,171,204,235,202,0,0.9974069455,1.995443915,-0.1265618414,249098.0149,
204,0.0167,0.02,0.02,0.0167,0.0568,0.0566,0.0599,0.0602,172,205,236,203,0,0.9974113708,1.993698702,-0.1164949873,249099.5441,
205,0.0167,0.02,0.02,0.0167,0.0535,0.0533,0.0566,0.0568,173,206,237,204,0,0.9974021577,1.992392208,-0.1067495288,249096.3169,
206,0.0167,0.02,0.02,0.0167,0.0501,0.0499,0.0533,0.0535,174,207,238,205,0,0.9974042182,1.994285592,-0.09901585017,249097.0423,
207,0.0167,0.02,0.02,0.0167,0.0468,0.0466,0.0499,0.0501,175,208,239,206,0,0.9974005494,1.990192241,-0.09129744099,249095.7358,
208,0.0167,0.02,0.02,0.0167,0.0435,0.0433,0.0466,0.0468,176,209,240,207,0,0.9973988997,1.989198442,-0.08266034017,249095.1512,
209,0.0167,0.02,0.02,0.0167,0.0401,0.0399,0.0433,0.0435,177,210,241,208,0,0.9973986276,1.991283382,-0.07554139381,249095.0648,
210,0.0167,0.02,0.02,0.0167,0.0368,0.0366,0.0399,0.0401,178,211,242,209,0,0.9973945234,1.98826118,-0.06899323223,249093.6134,
211,0.0167,0.02,0.02,0.0167,0.0334,0.0333,0.0366,0.0368,179,212,243,210,0,0.9973982652,1.987675535,-0.06166552862,249094.9133,
212,0.0167,0.02,0.02,0.0167,0.0301,0.03,0.0333,0.0334,180,213,244,211,0,0.9973927824,1.987686681,-0.05477052477,249092.9977,
213,0.0167,0.02,0.02,0.0167,0.0267,0.0266,0.03,0.0301,181,214,245,212,0,0.9973943476,1.989580009,-0.04909248339,249093.5523,
214,0.0167,0.02,0.02,0.0167,0.0234,0.0233,0.0266,0.0267,182,215,246,213,0,0.9973925321,1.987147196,-0.04323401435,249092.9034,
215,0.0167,0.02,0.02,0.0167,0.0201,0.02,0.0233,0.0234,183,216,247,214,0,0.9973918189,1.986933462,-0.03665333557,249092.6514,
216,0.0167,0.02,0.02,0.0167,0.0167,0.0166,0.02,0.0201,184,217,248,215,0,0.9973918335,1.98897538,-0.03097632658,249092.6664,
217,0.0167,0.02,0.02,0.0167,0.0134,0.0133,0.0166,0.0167,185,218,249,216,0,0.9973893446,1.986839966,-0.02564597741,249091.7848,
218,0.0167,0.02,0.02,0.0167,0.01,0.01,0.0133,0.0134,186,219,250,217,0,0.9973928829,1.98658746,-0.01954679224,249093.0171,
219,0.0167,0.02,0.02,0.0167,0.0067,0.0067,0.01,0.01,187,220,251,218,0,0.9973886931,1.98662158,-0.01351270623,249091.5546,
220,0.0167,0.02,0.02,0.0167,0.0033,0.0033,0.0067,0.0067,188,221,252,219,0,0.997390527,1.988549381,-0.008388664247,249092.2049,
221,0.0167,0.02,0.02,0.0167,0,0,0.0033,0.0033,189,222,253,220,0,0.9973898112,1.986521025,-0.003035541693,249091.9438,
222,0.0167,0.02,0.02,0.0167,-0.0033,-0.0033,0,0,190,-2,254,221,1,0.9973898112,1.986521025,0.003035541693,249091.9438,
223,0.02,0.0233,0.0233,0.02,0.0999,0.0994,0.1027,0.1032,191,224,255,-2,1,0.9974918571,2.03881282,-0.3385308749,249128.0413,
224,0.02,0.0233,0.0233,0.02,0.0965,0.0961,0.0994,0.0999,192,225,256,223,0,0.9974918571,2.047587099,-0.280620628,249128.0413,
225,0.02,0.0233,0.0233,0.02,0.0932,0.0928,0.0961,0.0965,193,226,257,224,0,0.9974625122,2.045318239,-0.2632082553,249117.7713,
226,0.02,0.0233,0.0233,0.02,0.0899,0.0895,0.0928,0.0932,194,227,258,225,0,0.9974502624,2.040728401,-0.2509569745,249113.4605,
227,0.02,0.0233,0.0233,0.02,0.0866,0.0862,0.0895,0.0899,195,228,259,226,0,0.99744113,2.036291718,-0.2387202864,249110.2404,
228,0.02,0.0233,0.0233,0.02,0.0832,0.0829,0.0862,0.0866,196,229,260,227,0,0.9974444034,2.034899349,-0.22361344,249111.366,
229,0.02,0.0233,0.0233,0.02,0.0799,0.0795,0.0829,0.0832,197,230,261,228,0,0.9974240029,2.027000705,-0.2133779346,249104.1966,
230,0.02,0.0233,0.0233,0.02,0.0766,0.0762,0.0795,0.0799,198,231,262,229,0,0.9974264383,2.021052228,-0.2049861231,249105.0088,
231,0.02,0.0233,0.0233,0.02,0.0732,0.0729,0.0762,0.0766,199,232,263,230,0,0.9974261756,2.01820342,-0.1892369929,249104.8923,
232,0.02,0.0233,0.0233,0.02,0.0699,0.0696,0.0729,0.0732,200,233,264,231,0,0.9974128867,2.01105,-0.1738780693,249100.2063,
233,0.02,0.0233,0.0233,0.02,0.0666,0.0663,0.0696,0.0699,201,234,265,232,0,0.9974130593,2.008542756,-0.1623451574,249100.2461,
234,0.02,0.0233,0.0233,0.02,0.0632,0.063,0.0663,0.0666,202,235,266,233,0,0.9974131703,2.007332128,-0.149503459,249100.2711,
235,0.02,0.0233,0.0233,0.02,0.0599,0.0597,0.063,0.0632,203,236,267,234,0,0.9974096487,2.005187546,-0.1366323877,249099.0233,
236,0.02,0.0233,0.0233,0.02,0.0566,0.0563,0.0597,0.0599,204,237,268,235,0,0.9974033021,2.003505873,-0.1295535636,249096.7947,
237,0.02,0.0233,0.0233,0.02,0.0533,0.053,0.0563,0.0566,205,238,269,236,0,0.9974050003,2.001151684,-0.1226137667,249097.3697,
238,0.02,0.0233,0.0233,0.02,0.0499,0.0497,0.053,0.0533,206,239,270,237,0,0.9974032646,2.00016774,-0.1110276682,249096.7528,
239,0.02,0.0233,0.0233,0.02,0.0466,0.0464,0.0497,0.0499,207,240,271,238,0,0.9973981923,1.998090068,-0.1007023358,249094.9666,
240,0.02,0.0233,0.0233,0.02,0.0433,0.0431,0.0464,0.0466,208,241,272,239,0,0.9973968739,1.996959437,-0.09338949283,249094.4969,
241,0.02,0.0233,0.0233,0.02,0.0399,0.0398,0.0431,0.0433,209,242,273,240,0,0.9973978994,1.996892477,-0.08417515784,249094.8507,
242,0.02,0.0233,0.0233,0.02,0.0366,0.0365,0.0398,0.0399,210,243,274,241,0,0.9973961887,1.995854012,-0.0748238024,249094.2446,
243,0.02,0.0233,0.0233,0.02,0.0333,0.0331,0.0365,0.0366,211,244,275,242,0,0.997392512,1.995441174,-0.06944810788,249092.9569,
244,0.02,0.0233,0.0233,0.02,0.03,0.0298,0.0331,0.0333,212,245,276,243,0,0.9973942661,1.994598775,-0.06421595565,249093.5619,
245,0.02,0.0233,0.0233,0.02,0.0266,0.0265,0.0298,0.03,213,246,277,244,0,0.9973935482,1.994435671,-0.05558624268,249093.3076,
246,0.02,0.0233,0.0233,0.02,0.0233,0.0232,0.0265,0.0266,214,247,278,245,0,0.997390436,1.993511597,-0.04773090168,249092.2141,
247,0.02,0.0233,0.0233,0.02,0.02,0.0199,0.0232,0.0233,215,248,279,246,0,0.9973898935,1.993239553,-0.04199737917,249092.0214,
248,0.02,0.0233,0.0233,0.02,0.0166,0.0166,0.0199,0.02,216,249,280,247,0,0.99739109,1.993711809,-0.0344398544,249092.4397,
249,0.02,0.0233,0.0233,0.02,0.0133,0.0133,0.0166,0.0166,217,250,281,248,0,0.9973905061,1.993224824,-0.02662193716,249092.2318,
250,0.02,0.0233,0.0233,0.02,0.01,0.0099,0.0133,0.0133,218,251,282,249,0,0.9973875609,1.993372758,-0.02199718154,249091.204,
251,0.02,0.0233,0.0233,0.02,0.0067,0.0066,0.0099,0.01,219,252,283,250,0,0.9973899328,1.992849779,-0.01741969633,249092.0281,
252,0.02,0.0233,0.0233,0.02,0.0033,0.0033,0.0066,0.0067,220,253,284,251,0,0.9973897548,1.993090422,-0.009824007949,249091.9667,