'cellnumber','cornerlocs_x','cornerlocs_y','adjacent_cells','edge_state','initial_conditions'
1,-0.0034,0,0,-0.0034,0.0993,0.0989,0.1023,0.1027,-2,2,32,-2,3,1,320,0,350000,
2,-0.0034,0,0,-0.0034,0.0958,0.0955,0.0989,0.0993,-2,3,33,1,3,1,320,0,350000,
3,-0.0034,0,0,-0.0034,0.0924,0.0921,0.0955,0.0958,-2,4,34,2,3,1,320,0,350000,
4,-0.0034,0,0,-0.0034,0.089,0.0887,0.0921,0.0924,-2,5,35,3,3,1,320,0,350000,
5,-0.0034,0,0,-0.0034,0.0856,0.0853,0.0887,0.089,-2,6,36,4,3,1,320,0,350000,
6,-0.0034,0,0,-0.0034,0.0821,0.0818,0.0853,0.0856,-2,7,37,5,3,1,320,0,350000,
7,-0.0034,0,0,-0.0034,0.0787,0.0784,0.0818,0.0821,-2,8,38,6,3,1,320,0,350000,
8,-0.0034,0,0,-0.0034,0.0753,0.075,0.0784,0.0787,-2,9,39,7,3,1,320,0,350000,
9,-0.0034,0,0,-0.0034,0.0719,0.0716,0.075,0.0753,-2,10,40,8,3,1,320,0,350000,
10,-0.0034,0,0,-0.0034,0.0685,0.0682,0.0716,0.0719,-2,11,41,9,3,1,320,0,350000,
11,-0.0034,0,0,-0.0034,0.065,0.0648,0.0682,0.0685,-2,12,42,10,3,1,320,0,350000,
12,-0.0034,0,0,-0.0034,0.0616,0.0614,0.0648,0.065,-2,13,43,11,3,1,320,0,350000,
13,-0.0034,0,0,-0.0034,0.0582,0.058,0.0614,0.0616,-2,14,44,12,3,1,320,0,350000,
14,-0.0034,0,0,-0.0034,0.0548,0.0546,0.058,0.0582,-2,15,45,13,3,1,320,0,350000,
15,-0.0034,0,0,-0.0034,0.0513,0.0512,0.0546,0.0548,-2,16,46,14,3,1,320,0,350000,
16,-0.0034,0,0,-0.0034,0.0479,0.0477,0.0512,0.0513,-2,17,47,15,3,1,320,0,350000,
17,-0.0034,0,0,-0.0034,0.0445,0.0443,0.0477,0.0479,-2,18,48,16,3,1,320,0,350000,
18,-0.0034,0,0,-0.0034,0.0411,0.0409,0.0443,0.0445,-2,19,49,17,3,1,320,0,350000,
19,-0.0034,0,0,-0.0034,0.0376,0.0375,0.0409,0.0411,-2,20,50,18,3,1,320,0,350000,
20,-0.0034,0,0,-0.0034,0.0342,0.0341,0.0375,0.0376,-2,21,51,19,3,1,320,0,350000,
21,-0.0034,0,0,-0.0034,0.0308,0.0307,0.0341,0.0342,-2,22,52,20,3,1,320,0,350000,
22,-0.0034,0,0,-0.0034,0.0274,0.0273,0.0307,0.0308,-2,23,53,21,3,1,320,0,350000,
23,-0.0034,0,0,-0.0034,0.024,0.0239,0.0273,0.0274,-2,24,54,22,3,1,320,0,350000,
24,-0.0034,0,0,-0.0034,0.0205,0.0205,0.0239,0.024,-2,25,55,23,3,1,320,0,350000,
25,-0.0034,0,0,-0.0034,0.0171,0.0171,0.0205,0.0205,-2,26,56,24,3,1,320,0,350000,
26,-0.0034,0,0,-0.0034,0.0137,0.0136,0.0171,0.0171,-2,27,57,25,3,1,320,0,350000,
27,-0.0034,0,0,-0.0034,0.0103,0.0102,0.0136,0.0137,-2,28,58,26,3,1,320,0,350000,
28,-0.0034,0,0,-0.0034,0.0068,0.0068,0.0102,0.0103,-2,29,59,27,3,1,320,0,350000,
29,-0.0034,0,0,-0.0034,0.0034,0.0034,0.0068,0.0068,-2,30,60,28,3,1,320,0,350000,
30,-0.0034,0,0,-0.0034,0,0,0.0034,0.0034,-2,-2,61,29,3,1,320,0,350000,
31,0,0.0033,0.0033,0,0.1023,0.1019,0.1053,0.1057,-2,32,63,-2,1,1.034622465,325.1498613,-56.78899254,358866.5822,
32,0,0.0033,0.0033,0,0.0989,0.0985,0.1019,0.1023,1,33,64,31,0,1.034622465,329.3014437,-22.53843837,358866.5822,
33,0,0.0033,0.0033,0,0.0955,0.0951,0.0985,0.0989,2,34,65,32,0,1.018891429,326.9080807,-11.24614621,352806.0998,
34,0,0.0033,0.0033,0,0.0921,0.0917,0.0951,0.0955,3,35,66,33,0,1.007058691,325.3084056,-6.259434195,349241.377,
35,0,0.0033,0.0033,0,0.0887,0.0883,0.0917,0.0921,4,36,67,34,0,0.9987563063,324.3442287,-3.656597196,347441.9475,
36,0,0.0033,0.0033,0,0.0853,0.0849,0.0883,0.0887,5,37,68,35,0,0.9926867513,323.6219241,-2.157172837,346559.3159,
37,0,0.0033,0.0033,0,0.0818,0.0815,0.0849,0.0853,6,38,69,36,0,0.9881274114,322.965392,-1.231339027,346177.2738,
38,0,0.0033,0.0033,0,0.0784,0.0781,0.0815,0.0818,7,39,70,37,0,0.984534954,322.3936815,-0.6400697636,346030.2239,
39,0,0.0033,0.0033,0,0.075,0.0747,0.0781,0.0784,8,40,71,38,0,0.9818205915,321.8157032,-0.2184836583,346085.7021,
40,0,0.0033,0.0033,0,0.0716,0.0713,0.0747,0.075,9,41,72,39,0,0.9797296,321.2566403,0.08695330518,346247.8296,
41,0,0.0033,0.0033,0,0.0682,0.0679,0.0713,0.0716,10,42,73,40,0,0.9782270215,320.7099398,0.3210205765,346500.6587,
42,0,0.0033,0.0033,0,0.0648,0.0646,0.0679,0.0682,11,43,74,41,0,0.9773134198,320.180609,0.4905473353,346832.5808,
43,0,0.0033,0.0033,0,0.0614,0.0612,0.0646,0.0648,12,44,75,42,0,0.9765799023,319.6872982,0.6167460472,347167.2945,
44,0,0.0033,0.0033,0,0.058,0.0578,0.0612,0.0614,13,45,76,43,0,0.9762971644,319.2232,0.7123885525,347543.1579,
45,0,0.0033,0.0033,0,0.0546,0.0544,0.0578,0.058,14,46,77,44,0,0.9763638113,318.7939829,0.7752925906,347938.4042,
46,0,0.0033,0.0033,0,0.0512,0.051,0.0544,0.0546,15,47,78,45,0,0.9766596581,318.4025835,0.8120328172,348333.4668,
47,0,0.0033,0.0033,0,0.0477,0.0476,0.051,0.0512,16,48,79,46,0,0.9772888973,318.057841,0.8193392792,348738.3305,
48,0,0.0033,0.0033,0,0.0443,0.0442,0.0476,0.0477,17,49,80,47,0,0.9777611983,317.7311628,0.8252677054,349108.9867,
49,0,0.0033,0.0033,0,0.0409,0.0408,0.0442,0.0443,18,50,81,48,0,0.9784784827,317.4450218,0.8156678337,349473.7828,
50,0,0.0033,0.0033,0,0.0375,0.0374,0.0408,0.0409,19,51,82,49,0,0.9793049017,317.1940949,0.7913615303,349821.0132,
51,0,0.0033,0.0033,0,0.0341,0.034,0.0374,0.0375,20,52,83,50,0,0.9802122975,316.9778033,0.7554030655,350147.6656,
52,0,0.0033,0.0033,0,0.0307,0.0306,0.034,0.0341,21,53,84,51,0,0.9811688141,316.7945377,0.7082747488,350450.6977,
53,0,0.0033,0.0033,0,0.0273,0.0272,0.0306,0.0307,22,54,85,52,0,0.9820625557,316.6321748,0.6528028418,350725.9749,
54,0,0.0033,0.0033,0,0.0239,0.0238,0.0272,0.0273,23,55,86,53,0,0.9829255688,316.4955954,0.5903104111,350972.9061,
55,0,0.0033,0.0033,0,0.0205,0.0204,0.0238,0.0239,24,56,87,54,0,0.9837589559,316.3861655,0.5214856188,351190.1135,
56,0,0.0033,0.0033,0,0.0171,0.017,0.0204,0.0205,25,57,88,55,0,0.9845571104,316.3053337,0.4466790073,351375.9755,
57,0,0.0033,0.0033,0,0.0136,0.0136,0.017,0.0171,26,58,89,56,0,0.9853470069,316.2617983,0.368015371,351527.2775,
58,0,0.0033,0.0033,0,0.0102,0.0102,0.0136,0.0136,27,59,90,57,0,0.9857751318,316.1847698,0.2936415881,351658.9525,
59,0,0.0033,0.0033,0,0.0068,0.0068,0.0102,0.0102,28,60,91,58,0,0.9861168401,316.1304562,0.2123733393,351755.7743,
60,0,0.0033,0.0033,0,0.0034,0.0034,0.0068,0.0068,29,61,92,59,0,0.9863729844,316.0991561,0.1282425286,351819.7503,
61,0,0.0033,0.0033,0,0,0,0.0034,0.0034,30,62,93,60,0,0.986497086,316.0828571,0.04286074075,351851.9327,
62,0,0.0033,0.0033,0,-0.0034,-0.0034,0,0,-2,-2,94,61,1,0.986497086,316.0828571,-0.04286074075,351851.9327,
63,0.0033,0.0066,0.0066,0.0033,0.1019,0.1015,0.1049,0.1053,31,64,95,-2,1,1.047912716,336.020352,-50.02003206,359602.4425,
64,0.0033,0.0066,0.0066,0.0033,0.0985,0.0981,0.1015,0.1019,32,65,96,63,0,1.047912716,338.2399332,-31.70848736,359602.4425,
65,0.0033,0.0066,0.0066,0.0033,0.0951,0.0948,0.0981,0.0985,33,66,97,64,0,1.033475671,335.6179526,-20.57168536,353554.2536,
66,0.0033,0.0066,0.0066,0.0033,0.0917,0.0914,0.0948,0.0951,34,67,98,65,0,1.018218157,333.1880004,-13.50201995,348369.4684,
67,0.0033,0.0066,0.0066,0.0033,0.0883,0.088,0.0914,0.0917,35,68,99,66,0,1.004929847,331.3845999,-8.813468922,344993.6002,
68,0.0033,0.0066,0.0066,0.0033,0.0849,0.0846,0.088,0.0883,36,69,100,67,0,0.9937260061,329.9417759,-5.671511888,342959.8498,
69,0.0033,0.0066,0.0066,0.0033,0.0815,0.0812,0.0846,0.0849,37,70,101,68,0,0.9843361022,328.6585522,-3.524538159,341801.7098,
70,0.0033,0.0066,0.0066,0.0033,0.0781,0.0778,0.0812,0.0815,38,71,102,69,0,0.9764978627,327.4282563,-2.009288997,341233.6929,
71,0.0033,0.0066,0.0066,0.0033,0.0747,0.0745,0.0778,0.0781,39,72,103,70,0,0.9700555466,326.1728991,-0.9165290181,341110.8448,
72,0.0033,0.0066,0.0066,0.0033,0.0713,0.0711,0.0745,0.0747,40,73,104,71,0,0.964623346,324.9892413,-0.1100987735,341193.3678,
73,0.0033,0.0066,0.0066,0.0033,0.0679,0.0677,0.0711,0.0713,41,74,105,72,0,0.9602534447,323.7896379,0.5261768176,341514.4572,
74,0.0033,0.0066,0.0066,0.0033,0.0646,0.0643,0.0677,0.0679,42,75,106,73,0,0.9567370058,322.6127768,1.029229423,341973.1427,
75,0.0033,0.0066,0.0066,0.0033,0.0612,0.0609,0.0643,0.0646,43,76,107,74,0,0.9542536403,321.4245962,1.400494184,342608.4047,
76,0.0033,0.0066,0.0066,0.0033,0.0578,0.0575,0.0609,0.0612,44,77,108,75,0,0.9524424795,320.3139029,1.670949925,343296.4562,
77,0.0033,0.0066,0.0066,0.0033,0.0544,0.0542,0.0575,0.0578,45,78,109,76,0,0.9514208941,319.2663274,1.85892961,344061.0495,
78,0.0033,0.0066,0.0066,0.0033,0.051,0.0508,0.0542,0.0544,46,79,110,77,0,0.9507413311,318.3008148,1.982202867,344815.4582,
79,0.0033,0.0066,0.0066,0.0033,0.0476,0.0474,0.0508,0.051,47,80,111,78,0,0.9506082573,317.410147,2.051453178,345594.1468,
80,0.0033,0.0066,0.0066,0.0033,0.0442,0.044,0.0474,0.0476,48,81,112,79,0,0.9508586595,316.5933346,2.08013762,346369.5548,
81,0.0033,0.0066,0.0066,0.0033,0.0408,0.0406,0.044,0.0442,49,82,113,80,0,0.9515016309,315.8537515,2.065395242,347133.698,
82,0.0033,0.0066,0.0066,0.0033,0.0374,0.0372,0.0406,0.0408,50,83,114,81,0,0.9523500092,315.1898714,2.014544078,347861.4729,
83,0.0033,0.0066,0.0066,0.0033,0.034,0.0338,0.0372,0.0374,51,84,115,82,0,0.953456723,314.6034477,1.934824151,348557.0961,
84,0.0033,0.0066,0.0066,0.0033,0.0306,0.0305,0.0338,0.034,52,85,116,83,0,0.9548413258,314.1011663,1.82149156,349217.5796,
85,0.0033,0.0066,0.0066,0.0033,0.0272,0.0271,0.0305,0.0306,53,86,117,84,0,0.9560134713,313.6430767,1.68812287,349810.6486,
86,0.0033,0.0066,0.0066,0.0033,0.0238,0.0237,0.0271,0.0272,54,87,118,85,0,0.9572358359,313.2512546,1.533536723,350349.0631,
87,0.0033,0.0066,0.0066,0.0033,0.0204,0.0203,0.0237,0.0238,55,88,119,86,0,0.9584902338,312.9262162,1.361591373,350830.0807,
88,0.0033,0.0066,0.0066,0.0033,0.017,0.0169,0.0203,0.0204,56,89,120,87,0,0.959722334,312.6650832,1.172697995,351249.4219,
89,0.0033,0.0066,0.0066,0.0033,0.0136,0.0135,0.0169,0.017,57,90,121,88,0,0.9607798071,312.4531063,0.972930056,351600.0085,
90,0.0033,0.0066,0.0066,0.0033,0.0102,0.0102,0.0135,0.0136,58,91,122,89,0,0.9617355048,312.2952908,0.766933244,351884.5349,
91,0.0033,0.0066,0.0066,0.0033,0.0068,0.0068,0.0102,0.0102,59,92,123,90,0,0.9622292682,312.1443198,0.5557057082,352096.2101,
92,0.0033,0.0066,0.0066,0.0033,0.0034,0.0034,0.0068,0.0068,60,93,124,91,0,0.9626760286,312.0582866,0.3357472116,352238.9831,
93,0.0033,0.0066,0.0066,0.0033,0,0,0.0034,0.0034,61,94,125,92,0,0.9628531984,312.0094411,0.1120430271,352309.5236,
94,0.0033,0.0066,0.0066,0.0033,-0.0034,-0.0034,0,0,62,-2,126,93,1,0.9628531984,312.0094411,-0.1120430271,352309.5236,
95,0.0066,0.01,0.01,0.0066,0.1015,0.1011,0.1045,0.1049,63,96,127,-2,1,1.059993499,346.9822862,-45.80569098,356286.3733,
96,0.0066,0.01,0.01,0.0066,0.0981,0.0978,0.1011,0.1015,64,97,128,95,0,1.059993499,348.1390394,-35.9732885,356286.3733,
97,0.0066,0.01,0.01,0.0066,0.0948,0.0944,0.0978,0.0981,65,98,129,96,0,1.049613105,346.1601519,-27.4225205,351539.3891,
98,0.0066,0.01,0.01,0.0066,0.0914,0.091,0.0944,0.0948,66,99,130,97,0,1.035077152,343.4716089,-20.2368447,346280.8095,
99,0.0066,0.01,0.01,0.0066,0.088,0.0876,0.091,0.0914,67,100,131,98,0,1.020036555,341.1917825,-14.55544714,342101.0046,
100,0.0066,0.01,0.01,0.0066,0.0846,0.0843,0.0876,0.088,68,101,132,99,0,1.005590727,339.2209974,-10.19782837,339159.9118,
101,0.0066,0.01,0.01,0.0066,0.0812,0.0809,0.0843,0.0846,69,102,133,100,0,0.9922739169,337.4617249,-6.908490487,337158.7978,
102,0.0066,0.01,0.01,0.0066,0.0778,0.0775,0.0809,0.0812,70,103,134,101,0,0.9801359037,335.6822303,-4.376587898,335942.985,
103,0.0066,0.01,0.01,0.0066,0.0745,0.0742,0.0775,0.0778,71,104,135,102,0,0.9692762584,333.8359267,-2.431692086,335344.3602,
104,0.0066,0.01,0.01,0.0066,0.0711,0.0708,0.0742,0.0745,72,105,136,103,0,0.9595823013,331.9206703,-0.9044849153,335162.9393,
105,0.0066,0.01,0.01,0.0066,0.0677,0.0674,0.0708,0.0711,73,106,137,104,0,0.9511653216,329.9552843,0.3106591961,335354.9344,
106,0.0066,0.01,0.01,0.0066,0.0643,0.064,0.0674,0.0677,74,107,138,105,0,0.9439807384,327.9618704,1.273581706,335825.7161,
107,0.0066,0.01,0.01,0.0066,0.0609,0.0607,0.064,0.0643,75,108,139,106,0,0.93805627,325.9607945,2.009586813,336541.4329,
108,0.0066,0.01,0.01,0.0066,0.0575,0.0573,0.0607,0.0609,76,109,140,107,0,0.933089141,324.0681346,2.5695222,337353.508,
109,0.0066,0.01,0.01,0.0066,0.0542,0.0539,0.0573,0.0575,77,110,141,108,0,0.9290973845,322.2455433,3.021246428,338277.5771,
110,0.0066,0.01,0.01,0.0066,0.0508,0.0506,0.0539,0.0542,78,111,142,109,0,0.9263882446,320.4435902,3.311879471,339394.839,
111,0.0066,0.01,0.01,0.0066,0.0474,0.0472,0.0506,0.0508,79,112,143,110,0,0.9242006826,318.8144047,3.490545065,340471.8583,
112,0.0066,0.01,0.01,0.0066,0.044,0.0438,0.0472,0.0474,80,113,144,111,0,0.9228660822,317.2954033,3.593223295,341598.0323,
113,0.0066,0.01,0.01,0.0066,0.0406,0.0405,0.0438,0.044,81,114,145,112,0,0.9223494332,315.8995147,3.599939886,342750.2255,
114,0.0066,0.01,0.01,0.0066,0.0372,0.0371,0.0405,0.0406,82,115,146,113,0,0.9220134666,314.6436351,3.540922577,343818.1929,
115,0.0066,0.01,0.01,0.0066,0.0338,0.0337,0.0371,0.0372,83,116,147,114,0,0.9222443256,313.5109726,3.426270084,344869.2665,
116,0.0066,0.01,0.01,0.0066,0.0305,0.0303,0.0337,0.0338,84,117,148,115,0,0.9226608564,312.496019,3.273007192,345838.2892,
117,0.0066,0.01,0.01,0.0066,0.0271,0.027,0.0303,0.0305,85,118,149,116,0,0.9238835098,311.6201212,3.037398119,346811.3497,
118,0.0066,0.01,0.01,0.0066,0.0237,0.0236,0.027,0.0271,86,119,150,117,0,0.9247337269,310.8461744,2.765905368,347646.285,
119,0.0066,0.01,0.01,0.0066,0.0203,0.0202,0.0236,0.0237,87,120,151,118,0,0.9258198367,310.1930098,2.465403785,348406.6285,
120,0.0066,0.01,0.01,0.0066,0.0169,0.0169,0.0202,0.0203,88,121,152,119,0,0.9270966702,309.6621985,2.127293708,349085.4477,
121,0.0066,0.01,0.01,0.0066,0.0135,0.0135,0.0169,0.0169,89,122,153,120,0,0.9278425986,309.2004797,1.770276656,349627.8925,
122,0.0066,0.01,0.01,0.0066,0.0102,0.0101,0.0135,0.0135,90,123,154,121,0,0.9284583009,308.8291835,1.406559938,350061.2566,
123,0.0066,0.01,0.01,0.0066,0.0068,0.0067,0.0101,0.0102,91,124,155,122,0,0.929320175,308.5819172,1.017155757,350418.3787,
124,0.0066,0.01,0.01,0.0066,0.0034,0.0034,0.0067,0.0068,92,125,156,123,0,0.9300330632,308.4309166,0.612129291,350662.8911,
125,0.0066,0.01,0.01,0.0066,0,0,0.0034,0.0034,93,126,157,124,0,0.930069045,308.3267351,0.2035779252,350766.8178,
126,0.0066,0.01,0.01,0.0066,-0.0034,-0.0034,0,0,94,-2,158,125,1,0.930069045,308.3267351,-0.2035779252,350766.8178,
127,0.01,0.0133,0.0133,0.01,0.1011,0.1007,0.1041,0.1045,95,128,159,-2,1,1.083700697,359.05506,-47.58297625,351767.6186,
128,0.01,0.0133,0.0133,0.01,0.0978,0.0974,0.1007,0.1011,96,129,160,127,0,1.083700697,360.0253259,-39.57828264,351767.6186,
129,0.01,0.0133,0.0133,0.01,0.0944,0.094,0.0974,0.0978,97,130,161,128,0,1.075398506,358.2857588,-32.69395997,347933.9397,
130,0.01,0.0133,0.0133,0.01,0.091,0.0906,0.094,0.0944,98,131,162,129,0,1.062747894,355.83297,-26.26474254,343105.6453,
131,0.01,0.0133,0.0133,0.01,0.0876,0.0873,0.0906,0.091,99,132,163,130,0,1.047964495,353.5361818,-20.48543343,338726.4398,
132,0.01,0.0133,0.0133,0.01,0.0843,0.0839,0.0873,0.0876,100,133,164,131,0,1.032538603,351.6051843,-15.54313601,335133.7468,
133,0.01,0.0133,0.0133,0.01,0.0809,0.0806,0.0839,0.0843,101,134,165,132,0,1.016113932,349.4521658,-11.30996528,332472.7639,
134,0.01,0.0133,0.0133,0.01,0.0775,0.0772,0.0806,0.0809,102,135,166,133,0,1.000278293,347.3764812,-7.884475634,330539.3867,
135,0.01,0.0133,0.0133,0.01,0.0742,0.0739,0.0772,0.0775,103,136,167,134,0,0.985033546,345.1262461,-5.066840386,329319.9105,
136,0.01,0.0133,0.0133,0.01,0.0708,0.0705,0.0739,0.0742,104,137,168,135,0,0.9704275002,342.614486,-2.720007512,328635.4296,
137,0.01,0.0133,0.0133,0.01,0.0674,0.0671,0.0705,0.0708,105,138,169,136,0,0.9568881505,339.9137571,-0.7943446366,328456.1951,
138,0.01,0.0133,0.0133,0.01,0.064,0.0638,0.0671,0.0674,106,139,170,137,0,0.9446262941,337.0894817,0.7588151493,328687.7809,
139,0.01,0.0133,0.0133,0.01,0.0607,0.0604,0.0638,0.064,107,140,171,138,0,0.9337058015,334.3247807,2.024460475,329142.789,
140,0.01,0.0133,0.0133,0.01,0.0573,0.0571,0.0604,0.0607,108,141,172,139,0,0.9240565751,331.3637175,3.036466728,330000.6083,
141,0.01,0.0133,0.0133,0.01,0.0539,0.0537,0.0571,0.0573,109,142,173,140,0,0.9157213907,328.5673641,3.815132035,330963.774,
142,0.01,0.0133,0.0133,0.01,0.0506,0.0504,0.0537,0.0539,110,143,174,141,0,0.9087339714,325.8283161,4.414305877,332116.9117,
143,0.01,0.0133,0.0133,0.01,0.0472,0.047,0.0504,0.0506,111,144,175,142,0,0.9029779972,323.1839824,4.805680927,333406.8274,
144,0.01,0.0133,0.0133,0.01,0.0438,0.0436,0.047,0.0472,112,145,176,143,0,0.8983958874,320.7260997,5.042256561,334759.3986,
145,0.01,0.0133,0.0133,0.01,0.0405,0.0403,0.0436,0.0438,113,146,177,144,0,0.894833137,318.4597312,5.161387802,336126.8977,
146,0.01,0.0133,0.0133,0.01,0.0371,0.0369,0.0403,0.0405,114,147,178,145,0,0.8922501597,316.3593754,5.139004632,337523.8954,
147,0.01,0.0133,0.0133,0.01,0.0337,0.0336,0.0369,0.0371,115,148,179,146,0,0.8905684235,314.4639649,5.004385651,338908.4536,
148,0.01,0.0133,0.0133,0.01,0.0303,0.0302,0.0336,0.0337,116,149,180,147,0,0.889232172,312.7834243,4.793115255,340168.4172,
149,0.01,0.0133,0.0133,0.01,0.027,0.0269,0.0302,0.0303,117,150,181,148,0,0.8885707994,311.2863578,4.512458069,341373.3055,
150,0.01,0.0133,0.0133,0.01,0.0236,0.0235,0.0269,0.027,118,151,182,149,0,0.8884347586,309.9736653,4.130569294,342516.1343,
151,0.01,0.0133,0.0133,0.01,0.0202,0.0201,0.0235,0.0236,119,152,183,150,0,0.8885430447,308.8549873,3.6856917,343535.3484,
152,0.01,0.0133,0.0133,0.01,0.0169,0.0168,0.0201,0.0202,120,153,184,151,0,0.8887624063,307.9153773,3.207692028,344411.7129,
153,0.01,0.0133,0.0133,0.01,0.0135,0.0134,0.0168,0.0169,121,154,185,152,0,0.8892128094,307.1458433,2.677771714,345185.7245,
154,0.01,0.0133,0.0133,0.01,0.0101,0.0101,0.0134,0.0135,122,155,186,153,0,0.8897457598,306.5433378,2.113688268,345817.7343,
155,0.01,0.0133,0.0133,0.01,0.0067,0.0067,0.0101,0.0101,123,156,187,154,0,0.8899605786,306.089049,1.525930736,346266.3606,
156,0.01,0.0133,0.0133,0.01,0.0034,0.0034,0.0067,0.0067,124,157,188,155,0,0.8901450483,305.7883502,0.929115393,346562.1662,
157,0.01,0.0133,0.0133,0.01,0,0,0.0034,0.0034,125,158,189,156,0,0.8903646183,305.6416384,0.3140242236,346735.1049,
158,0.01,0.0133,0.0133,0.01,-0.0034,-0.0034,0,0,126,-2,190,157,1,0.8903646183,305.6416384,-0.3140242236,346735.1049,
159,0.0133,0.0166,0.0166,0.0133,0.1007,0.1003,0.1036,0.1041,127,160,191,-2,1,1.124575168,372.5679329,-47.88837451,347186.1203,
160,0.0133,0.0166,0.0166,0.0133,0.0974,0.097,0.1003,0.1007,128,161,192,159,0,1.124575168,373.2198397,-42.51014338,347186.1203,
161,0.0133,0.0166,0.0166,0.0133,0.094,0.0936,0.097,0.0974,129,162,193,160,0,1.118176146,371.8139079,-37.39974381,344175.9213,
162,0.0133,0.0166,0.0166,0.0133,0.0906,0.0903,0.0936,0.094,130,163,194,161,0,1.107683977,369.7964322,-32.10969271,339988.3804,
163,0.0133,0.0166,0.0166,0.0133,0.0873,0.0869,0.0903,0.0906,131,164,195,162,0,1.09508083,368.0552488,-26.8449602,335658.9335,
164,0.0133,0.0166,0.0166,0.0133,0.0839,0.0836,0.0869,0.0873,132,165,196,163,0,1.079138364,366.1660925,-21.7058437,331789.3036,
165,0.0133,0.0166,0.0166,0.0133,0.0806,0.0802,0.0836,0.0839,133,166,197,164,0,1.062052934,364.4342754,-17.07486142,328481.3338,
166,0.0133,0.0166,0.0166,0.0133,0.0772,0.0769,0.0802,0.0806,134,167,198,165,0,1.042784192,362.2339125,-12.87208302,325892.0351,
167,0.0133,0.0166,0.0166,0.0133,0.0739,0.0736,0.0769,0.0772,135,168,199,166,0,1.023795405,360.0069746,-9.290712656,323902.4702,
168,0.0133,0.0166,0.0166,0.0133,0.0705,0.0702,0.0736,0.0739,136,169,200,167,0,1.004131067,357.2421766,-6.105065375,322500.5909,
169,0.0133,0.0166,0.0166,0.0133,0.0671,0.0669,0.0702,0.0705,137,170,201,168,0,0.9847979711,354.0837508,-3.396487644,321685.819,
170,0.0133,0.0166,0.0166,0.0133,0.0638,0.0635,0.0669,0.0671,138,171,202,169,0,0.9668141296,350.8785506,-1.117660793,321239.6564,
171,0.0133,0.0166,0.0166,0.0133,0.0604,0.0602,0.0635,0.0638,139,172,203,170,0,0.9492747328,347.1583893,0.8588499334,321336.9212,
172,0.0133,0.0166,0.0166,0.0133,0.0571,0.0568,0.0602,0.0604,140,173,204,171,0,0.9333230935,343.4570055,2.481804948,321694.6899,
173,0.0133,0.0166,0.0166,0.0133,0.0537,0.0535,0.0568,0.0571,141,174,205,172,0,0.9185147035,339.4398272,3.799662748,322511.7552,
174,0.0133,0.0166,0.0166,0.0133,0.0504,0.0501,0.0535,0.0537,142,175,206,173,0,0.9054968264,335.6776844,4.838669701,323413.3909,
175,0.0133,0.0166,0.0166,0.0133,0.047,0.0468,0.0501,0.0504,143,176,207,174,0,0.8940151562,331.7241899,5.600726918,324732.6243,
176,0.0133,0.0166,0.0166,0.0133,0.0436,0.0435,0.0468,0.047,144,177,208,175,0,0.8842461883,328.1052135,6.070242139,326094.558,
177,0.0133,0.0166,0.0166,0.0133,0.0403,0.0401,0.0435,0.0436,145,178,209,176,0,0.8758160035,324.8092934,6.397091194,327422.1242,
178,0.0133,0.0166,0.0166,0.0133,0.0369,0.0368,0.0401,0.0403,146,179,210,177,0,0.8690979672,321.546444,6.507545256,329022.0393,
179,0.0133,0.0166,0.0166,0.0133,0.0336,0.0334,0.0368,0.0369,147,180,211,178,0,0.8633185118,318.692574,6.454189061,330446.1671,
180,0.0133,0.0166,0.0166,0.0133,0.0302,0.0301,0.0334,0.0336,148,181,212,179,0,0.8590845807,316.0215891,6.23527493,332004.3696,
181,0.0133,0.0166,0.0166,0.0133,0.0269,0.0267,0.0301,0.0302,149,182,213,180,0,0.8553199127,313.7268376,5.926334398,333314.7268,
182,0.0133,0.0166,0.0166,0.0133,0.0235,0.0234,0.0267,0.0269,150,183,214,181,0,0.853145641,311.6241457,5.470825163,334750.4609,
183,0.0133,0.0166,0.0166,0.0133,0.0201,0.0201,0.0234,0.0235,151,184,215,182,0,0.851279786,309.8692545,4.886659427,335962.022,
184,0.0133,0.0166,0.0166,0.0133,0.0168,0.0167,0.0201,0.0201,152,185,216,183,0,0.8494330267,308.4138556,4.283180451,336916.4856,
185,0.0133,0.0166,0.0166,0.0133,0.0134,0.0134,0.0167,0.0168,153,186,217,184,0,0.8489130234,307.1754108,3.589333494,337922.9972,
186,0.0133,0.0166,0.0166,0.0133,0.0101,0.01,0.0134,0.0134,154,187,218,185,0,0.8479294943,306.2205212,2.847015226,338590.4075,
187,0.0133,0.0166,0.0166,0.0133,0.0067,0.0067,0.01,0.0101,155,188,219,186,0,0.847915029,305.5008191,2.053667017,339234.8424,
188,0.0133,0.0166,0.0166,0.0133,0.0034,0.0033,0.0067,0.0067,156,189,220,187,0,0.8472384286,305.033351,1.254804023,339525.6307,
189,0.0133,0.0166,0.0166,0.0133,0,0,0.0033,0.0034,157,190,221,188,0,0.847710929,304.7904067,0.4333445734,339824.5656,
190,0.0133,0.0166,0.0166,0.0133,-0.0034,-0.0033,0,0,158,-2,222,189,1,0.847710929,304.7904067,-0.4333445734,339824.5656,
191,0.0166,0.02,0.02,0.0166,0.1003,0.0999,0.1032,0.1036,159,192,223,-2,1,1.186487995,385.6274283,-45.46831767,343335.7392,
192,0.0166,0.02,0.02,0.0166,0.097,0.0965,0.0999,0.1003,160,193,224,191,0,1.186487995,385.6507258,-45.27028869,343335.7392,
193,0.0166,0.02,0.02,0.0166,0.0936,0.0932,0.0965,0.097,161,194,225,192,0,1.18185126,384.977737,-42.14377728,341537.2092,
194,0.0166,0.02,0.02,0.0166,0.0903,0.0899,0.0932,0.0936,162,195,226,193,0,1.174592761,383.8963433,-38.19817983,338176.1594,
195,0.0166,0.02,0.02,0.0166,0.0869,0.0866,0.0899,0.0903,163,196,227,194,0,1.163639761,382.6775532,-33.69304805,334230.0503,
196,0.0166,0.02,0.02,0.0166,0.0836,0.0832,0.0866,0.0869,164,197,228,195,0,1.150457437,381.6991592,-29.04444076,330248.3503,
197,0.0166,0.02,0.02,0.0166,0.0802,0.0799,0.0832,0.0836,165,198,229,196,0,1.132786954,380.4127063,-24.30693086,326531.3057,
198,0.0166,0.02,0.02,0.0166,0.0769,0.0766,0.0799,0.0802,166,199,230,197,0,1.113297659,379.0887404,-19.87881127,323233.8108,
199,0.0166,0.02,0.02,0.0166,0.0736,0.0732,0.0766,0.0769,167,200,231,198,0,1.091702424,377.423294,-15.69450636,320384.6107,
200,0.0166,0.02,0.02,0.0166,0.0702,0.0699,0.0732,0.0736,168,201,232,199,0,1.067135853,374.9104484,-11.73641795,318081.5778,
201,0.0166,0.02,0.02,0.0166,0.0669,0.0666,0.0699,0.0702,169,202,233,200,0,1.042917223,372.1320451,-8.275328538,316273.1979,
202,0.0166,0.02,0.02,0.0166,0.0635,0.0633,0.0666,0.0669,170,203,234,201,0,1.01808264,368.728187,-5.13558873,314984.4022,
203,0.0166,0.02,0.02,0.0166,0.0602,0.0599,0.0633,0.0635,171,204,235,202,0,0.9941896245,365.0359269,-2.376962193,314116.581,
204,0.0166,0.02,0.02,0.0166,0.0568,0.0566,0.0599,0.0602,172,205,236,203,0,0.9699849591,360.5594079,0.08933742128,313809.4894,
205,0.0166,0.02,0.02,0.0166,0.0535,0.0533,0.0566,0.0568,173,206,237,204,0,0.9475110173,355.9472903,2.121133532,313852.7994,
206,0.0166,0.02,0.02,0.0166,0.0501,0.0499,0.0533,0.0535,174,207,238,205,0,0.9263772913,351.0886452,3.81576151,314251.9857,
207,0.0166,0.02,0.02,0.0166,0.0468,0.0466,0.0499,0.0501,175,208,239,206,0,0.9070710479,346.1355368,5.153358112,314999.4503,
208,0.0166,0.02,0.02,0.0166,0.0435,0.0433,0.0466,0.0468,176,209,240,207,0,0.889676919,341.241152,6.131275204,315994.5616,
209,0.0166,0.02,0.02,0.0166,0.0401,0.0399,0.0433,0.0435,177,210,241,208,0,0.8742475919,336.5048828,6.813658667,317177.1247,
210,0.0166,0.02,0.02,0.0166,0.0368,0.0366,0.0399,0.0401,178,211,242,209,0,0.8608916422,331.9870015,7.226348442,318526.2258,
211,0.0166,0.02,0.02,0.0166,0.0334,0.0333,0.0366,0.0368,179,212,243,210,0,0.8494525438,327.745791,7.351629311,319981.0158,
212,0.0166,0.02,0.02,0.0166,0.0301,0.03,0.0333,0.0334,180,213,244,211,0,0.8398027366,323.9568425,7.263915517,321384.4499,
213,0.0166,0.02,0.02,0.0166,0.0267,0.0266,0.03,0.0301,181,214,245,212,0,0.8317384659,320.5081904,6.983601832,322788.8982,
214,0.0166,0.02,0.02,0.0166,0.0234,0.0233,0.0266,0.0267,182,215,246,213,0,0.8252406065,317.4480277,6.539673416,324150.4883,
215,0.0166,0.02,0.02,0.0166,0.0201,0.02,0.0233,0.0234,183,216,247,214,0,0.8199790986,314.7990182,5.927580155,325414.6098,
216,0.0166,0.02,0.02,0.0166,0.0167,0.0166,0.02,0.0201,184,217,248,215,0,0.8157813801,312.5579415,5.202067487,326550.7271,
217,0.0166,0.02,0.02,0.0166,0.0134,0.0133,0.0166,0.0167,185,218,249,216,0,0.8126488877,310.7074053,4.393227237,327543.3734,
218,0.0166,0.02,0.02,0.0166,0.01,0.01,0.0133,0.0134,186,219,250,217,0,0.8103986894,309.2298302,3.486256746,328396.0786,
219,0.0166,0.02,0.02,0.0166,0.0067,0.0067,0.01,0.01,187,220,251,218,0,0.8086155348,308.1673509,2.529319678,328974.8529,
220,0.0166,0.02,0.02,0.0166,0.0033,0.0033,0.0067,0.0067,188,221,252,219,0,0.8074960326,307.4528419,1.53750722,329387.0163,
221,0.0166,0.02,0.02,0.0166,0,0,0.0033,0.0033,189,222,253,220,0,0.8070354152,307.093839,0.51929512,329596.77,
222,0.0166,0.02,0.02,0.0166,-0.0033,-0.0033,0,0,190,-2,254,221,1,0.8070354152,307.093839,-0.51929512,329596.77,
223,0.02,0.0233,0.0233,0.02,0.0999,0.0994,0.1027,0.1032,191,224,255,-2,1,1.273646216,395.7447923,-66.74983361,346577.7451,
224,0.02,0.0233,0.0233,0.02,0.0965,0.0961,0.0994,0.0999,192,225,256,223,0,1.273646216,397.7557487,-53.47752108,346577.7451,
225,0.02,0.0233,0.0233,0.02,0.0932,0.0928,0.0961,0.0965,193,226,257,224,0,1.268522676,396.7614528,-48.54892468,343335.7033,
226,0.02,0.0233,0.0233,0.02,0.0899,0.0895,0.0928,0.0932,194,227,258,225,0,1.262675004,395.822542,-44.90638326,339699.946,
227,0.02,0.0233,0.0233,0.02,0.0866,0.0862,0.0895,0.0899,195,228,259,226,0,1.254678087,395.1939397,-41.19004281,335816.6835,
228,0.02,0.0233,0.0233,0.02,0.0832,0.0829,0.0862,0.0866,196,229,260,227,0,1.243350621,394.8377452,-37.16707457,331779.0506,
229,0.02,0.0233,0.0233,0.02,0.0799,0.0795,0.0829,0.0832,197,230,261,228,0,1.229813336,394.7937935,-33.0484753,327783.3261,
230,0.02,0.0233,0.0233,0.02,0.0766,0.0762,0.0795,0.0799,198,231,262,229,0,1.211012369,394.5397757,-28.73731777,323893.0006,
231,0.02,0.0233,0.0233,0.02,0.0732,0.0729,0.0762,0.0766,199,232,263,230,0,1.188328183,393.9459481,-24.37932034,320206.1472,
232,0.02,0.0233,0.0233,0.02,0.0699,0.0696,0.0729,0.0732,200,233,264,231,0,1.163556239,393.0092715,-20.2185787,316861.1784,
233,0.02,0.0233,0.0233,0.02,0.0666,0.0663,0.0696,0.0699,201,234,265,232,0,1.135947205,391.4348648,-16.17350813,313890.2472,
234,0.02,0.0233,0.0233,0.02,0.0633,0.063,0.0663,0.0666,202,235,266,233,0,1.106092035,389.0816968,-12.28765204,311347.1446,
235,0.02,0.0233,0.0233,0.02,0.0599,0.0597,0.063,0.0633,203,236,267,234,0,1.074707971,385.8830922,-8.620662252,309264.8307,
236,0.02,0.0233,0.0233,0.02,0.0566,0.0563,0.0597,0.0599,204,237,268,235,0,1.044280231,382.2478834,-5.346551264,307614.5258,
237,0.02,0.0233,0.0233,0.02,0.0533,0.053,0.0563,0.0566,205,238,269,236,0,1.012763373,377.6081988,-2.329574267,306519.6887,
238,0.02,0.0233,0.0233,0.02,0.0499,0.0497,0.053,0.0533,206,239,270,237,0,0.9820310683,372.3299039,0.2711888644,305889.0057,
239,0.02,0.0233,0.0233,0.02,0.0466,0.0464,0.0497,0.0499,207,240,271,238,0,0.9538403437,366.9836933,2.39654285,305610.7739,
240,0.02,0.0233,0.0233,0.02,0.0433,0.0431,0.0464,0.0466,208,241,272,239,0,0.9270226454,361.2437437,4.154436138,305756.5473,
241,0.02,0.0233,0.0233,0.02,0.0399,0.0398,0.0431,0.0433,209,242,273,240,0,0.9020720622,355.2724841,5.486007269,306288.8735,
242,0.02,0.0233,0.0233,0.02,0.0366,0.0365,0.0398,0.0399,210,243,274,241,0,0.8801657847,349.6871415,6.400159009,306950.7472,
243,0.02,0.0233,0.0233,0.02,0.0333,0.0331,0.0365,0.0366,211,244,275,242,0,0.8605414305,344.2656249,6.99427885,307805.7334,
244,0.02,0.0233,0.0233,0.02,0.03,0.0298,0.0331,0.0333,212,245,276,243,0,0.8431744264,338.951678,7.279138655,308925.2157,
245,0.02,0.0233,0.0233,0.02,0.0266,0.0265,0.0298,0.03,213,246,277,244,0,0.8283361529,334.0400585,7.209238954,310149.2741,
246,0.02,0.0233,0.0233,0.02,0.0233,0.0232,0.0265,0.0266,214,247,278,245,0,0.8159799723,329.8564945,6.900647404,311215.669,
247,0.02,0.0233,0.0233,0.02,0.02,0.0199,0.0232,0.0233,215,248,279,246,0,0.8056349791,326.0733187,6.405031014,312329.5886,
248,0.02,0.0233,0.0233,0.02,0.0166,0.0166,0.0199,0.02,216,249,280,247,0,0.7972491212,322.7404456,5.68233437,313460.7546,
249,0.02,0.0233,0.0233,0.02,0.0133,0.0133,0.0166,0.0166,217,250,281,248,0,0.7905200104,320.1548219,4.817849026,314278.6624,
250,0.02,0.0233,0.0233,0.02,0.01,0.0099,0.0133,0.0133,218,251,282,249,0,0.7853129158,318.0890657,3.875379902,314969.972,
251,0.02,0.0233,0.0233,0.02,0.0067,0.0066,0.0099,0.01,219,252,283,250,0,0.7816931702,316.4297235,2.850909424,315631.8834,
252,0.02,0.0233,0.0233,0.02,0.0033,0.0033,0.0066,0.0067,220,253,284,251,0,0.779442846,315.296375,1.718072477,316141.088,
253,0.02,0.0233,0.0233,0.02,0,0,0.0033,0.0033,221,254,285,252,0,0.7781712463,314.8506732,0.5638180416,316247.9129,
254,0.02,0.0233,0.0233,0.02,-0.0033,-0.0033,0,0,222,-2,286,253,1,0.7781712463,314.8506732,-0.5638180416,316247.9129,
255,0.0233,0.0266,0.0266,0.0233,0.0994,0.099,0.1023,0.1027,223,256,287,-2,1,1.361311235,403.2504901,-46.09181903,348183.0253,
256,0.0233,0.0266,0.0266,0.0233,0.0961,0.0957,0.099,0.0994,224,257,288,255,0,1.361311235,402.5846299,-51.58516522,348183.0253,