'cellnumber','cornerlocs_x','cornerlocs_y','adjacent_cells','edge_state','initial_conditions'
1,-0.0099,0.0001,0.0001,-0.0099,0.99,0.99,1,1,-2,2,102,-2,1,1,0,0,250000,
2,-0.0099,0.0001,0.0001,-0.0099,0.98,0.98,0.99,0.99,-2,3,103,1,1,1,0,0,250000,
3,-0.0099,0.0001,0.0001,-0.0099,0.97,0.97,0.98,0.98,-2,4,104,2,1,1,0,0,250000,
4,-0.0099,0.0001,0.0001,-0.0099,0.96,0.96,0.97,0.97,-2,5,105,3,1,1,0,0,250000,
5,-0.0099,0.0001,0.0001,-0.0099,0.95,0.95,0.96,0.96,-2,6,106,4,1,1,0,0,250000,
6,-0.0099,0.0001,0.0001,-0.0099,0.94,0.94,0.95,0.95,-2,7,107,5,1,1,0,0,250000,
7,-0.0099,0.0001,0.0001,-0.0099,0.93,0.93,0.94,0.94,-2,8,108,6,1,1,0,0,250000,
8,-0.0099,0.0001,0.0001,-0.0099,0.92,0.92,0.93,0.93,-2,9,109,7,1,1,0,0,250000,
9,-0.0099,0.0001,0.0001,-0.0099,0.91,0.91,0.92,0.92,-2,10,110,8,1,1,0,0,250000,
10,-0.0099,0.0001,0.0001,-0.0099,0.9,0.9,0.91,0.91,-2,11,111,9,1,1,0,0,250000,
11,-0.0099,0.0001,0.0001,-0.0099,0.89,0.89,0.9,0.9,-2,12,112,10,1,1,0,0,250000,
12,-0.0099,0.0001,0.0001,-0.0099,0.88,0.88,0.89,0.89,-2,13,113,11,1,1,0,0,250000,
13,-0.0099,0.0001,0.0001,-0.0099,0.87,0.87,0.88,0.88,-2,14,114,12,1,1,0,0,250000,
14,-0.0099,0.0001,0.0001,-0.0099,0.86,0.86,0.87,0.87,-2,15,115,13,1,1,0,0,250000,
15,-0.0099,0.0001,0.0001,-0.0099,0.85,0.85,0.86,0.86,-2,16,116,14,1,1,0,0,250000,
16,-0.0099,0.0001,0.0001,-0.0099,0.84,0.84,0.85,0.85,-2,17,117,15,1,1,0,0,250000,
17,-0.0099,0.0001,0.0001,-0.0099,0.83,0.83,0.84,0.84,-2,18,118,16,1,1,0,0,250000,
18,-0.0099,0.0001,0.0001,-0.0099,0.82,0.82,0.83,0.83,-2,19,119,17,1,1,0,0,250000,
19,-0.0099,0.0001,0.0001,-0.0099,0.81,0.81,0.82,0.82,-2,20,120,18,1,1,0,0,250000,
20,-0.0099,0.0001,0.0001,-0.0099,0.8,0.8,0.81,0.81,-2,21,121,19,1,1,0,0,250000,
21,-0.0099,0.0001,0.0001,-0.0099,0.79,0.79,0.8,0.8,-2,22,122,20,1,1,0,0,250000,
22,-0.0099,0.0001,0.0001,-0.0099,0.78,0.78,0.79,0.79,-2,23,123,21,1,1,0,0,250000,
23,-0.0099,0.0001,0.0001,-0.0099,0.77,0.77,0.78,0.78,-2,24,124,22,1,1,0,0,250000,
24,-0.0099,0.0001,0.0001,-0.0099,0.76,0.76,0.77,0.77,-2,25,125,23,1,1,0,0,250000,
25,-0.0099,0.0001,0.0001,-0.0099,0.75,0.75,0.76,0.76,-2,26,126,24,1,1,0,0,250000,
26,-0.0099,0.0001,0.0001,-0.0099,0.74,0.74,0.75,0.75,-2,27,127,25,1,1,0,0,250000,
27,-0.0099,0.0001,0.0001,-0.0099,0.73,0.73,0.74,0.74,-2,28,128,26,1,1,0,0,250000,
28,-0.0099,0.0001,0.0001,-0.0099,0.72,0.72,0.73,0.73,-2,29,129,27,1,1,0,0,250000,
29,-0.0099,0.0001,0.0001,-0.0099,0.71,0.71,0.72,0.72,-2,30,130,28,1,1,0,0,250000,
30,-0.0099,0.0001,0.0001,-0.0099,0.7,0.7,0.71,0.71,-2,31,131,29,1,1,0,0,250000,
31,-0.0099,0.0001,0.0001,-0.0099,0.69,0.69,0.7,0.7,-2,32,132,30,1,1,0,0,250000,
32,-0.0099,0.0001,0.0001,-0.0099,0.68,0.68,0.69,0.69,-2,33,133,31,1,1,0,0,250000,
33,-0.0099,0.0001,0.0001,-0.0099,0.67,0.67,0.68,0.68,-2,34,134,32,1,1,0,0,250000,
34,-0.0099,0.0001,0.0001,-0.0099,0.66,0.66,0.67,0.67,-2,35,135,33,1,1,0,0,250000,
35,-0.0099,0.0001,0.0001,-0.0099,0.65,0.65,0.66,0.66,-2,36,136,34,1,1,0,0,250000,
36,-0.0099,0.0001,0.0001,-0.0099,0.64,0.64,0.65,0.65,-2,37,137,35,1,1,0,0,250000,
37,-0.0099,0.0001,0.0001,-0.0099,0.63,0.63,0.64,0.64,-2,38,138,36,1,1,0,0,250000,
38,-0.0099,0.0001,0.0001,-0.0099,0.62,0.62,0.63,0.63,-2,39,139,37,1,1,0,0,250000,
39,-0.0099,0.0001,0.0001,-0.0099,0.61,0.61,0.62,0.62,-2,40,140,38,1,1,0,0,250000,
40,-0.0099,0.0001,0.0001,-0.0099,0.6,0.6,0.61,0.61,-2,41,141,39,1,1,0,0,250000,
41,-0.0099,0.0001,0.0001,-0.0099,0.59,0.59,0.6,0.6,-2,42,142,40,1,1,0,0,250000,
42,-0.0099,0.0001,0.0001,-0.0099,0.58,0.58,0.59,0.59,-2,43,143,41,1,1,0,0,250000,
43,-0.0099,0.0001,0.0001,-0.0099,0.57,0.57,0.58,0.58,-2,44,144,42,1,1,0,0,250000,
44,-0.0099,0.0001,0.0001,-0.0099,0.56,0.56,0.57,0.57,-2,45,145,43,1,1,0,0,250000,
45,-0.0099,0.0001,0.0001,-0.0099,0.55,0.55,0.56,0.56,-2,46,146,44,1,1,0,0,250000,
46,-0.0099,0.0001,0.0001,-0.0099,0.54,0.54,0.55,0.55,-2,47,147,45,1,1,0,0,250000,
47,-0.0099,0.0001,0.0001,-0.0099,0.53,0.53,0.54,0.54,-2,48,148,46,1,1,0,0,250000,
48,-0.0099,0.0001,0.0001,-0.0099,0.52,0.52,0.53,0.53,-2,49,149,47,1,1,0,0,250000,
49,-0.0099,0.0001,0.0001,-0.0099,0.51,0.51,0.52,0.52,-2,50,150,48,1,1,0,0,250000,
50,-0.0099,0.0001,0.0001,-0.0099,0.5,0.5,0.51,0.51,-2,51,151,49,1,1,0,0,250000,
51,-0.0099,0.0001,0.0001,-0.0099,0.49,0.49,0.5,0.5,-2,52,152,50,1,1,0,0,250000,
52,-0.0099,0.0001,0.0001,-0.0099,0.48,0.48,0.49,0.49,-2,53,153,51,1,1,0,0,250000,
53,-0.0099,0.0001,0.0001,-0.0099,0.47,0.47,0.48,0.48,-2,54,154,52,1,1,0,0,250000,
54,-0.0099,0.0001,0.0001,-0.0099,0.46,0.46,0.47,0.47,-2,55,155,53,1,1,0,0,250000,
55,-0.0099,0.0001,0.0001,-0.0099,0.45,0.45,0.46,0.46,-2,56,156,54,1,1,0,0,250000,
56,-0.0099,0.0001,0.0001,-0.0099,0.44,0.44,0.45,0.45,-2,57,157,55,1,1,0,0,250000,
57,-0.0099,0.0001,0.0001,-0.0099,0.43,0.43,0.44,0.44,-2,58,158,56,1,1,0,0,250000,
58,-0.0099,0.0001,0.0001,-0.0099,0.42,0.42,0.43,0.43,-2,59,159,57,1,1,0,0,250000,
59,-0.0099,0.0001,0.0001,-0.0099,0.41,0.41,0.42,0.42,-2,60,160,58,1,1,0,0,250000,
60,-0.0099,0.0001,0.0001,-0.0099,0.4,0.4,0.41,0.41,-2,61,161,59,1,1,0,0,250000,
61,-0.0099,0.0001,0.0001,-0.0099,0.39,0.39,0.4,0.4,-2,62,162,60,1,1,0,0,250000,
62,-0.0099,0.0001,0.0001,-0.0099,0.38,0.38,0.39,0.39,-2,63,163,61,1,1,0,0,250000,
63,-0.0099,0.0001,0.0001,-0.0099,0.37,0.37,0.38,0.38,-2,64,164,62,1,1,0,0,250000,
64,-0.0099,0.0001,0.0001,-0.0099,0.36,0.36,0.37,0.37,-2,65,165,63,1,1,0,0,250000,
65,-0.0099,0.0001,0.0001,-0.0099,0.35,0.35,0.36,0.36,-2,66,166,64,1,1,0,0,250000,
66,-0.0099,0.0001,0.0001,-0.0099,0.34,0.34,0.35,0.35,-2,67,167,65,1,1,0,0,250000,
67,-0.0099,0.0001,0.0001,-0.0099,0.33,0.33,0.34,0.34,-2,68,168,66,1,1,0,0,250000,
68,-0.0099,0.0001,0.0001,-0.0099,0.32,0.32,0.33,0.33,-2,69,169,67,1,1,0,0,250000,
69,-0.0099,0.0001,0.0001,-0.0099,0.31,0.31,0.32,0.32,-2,70,170,68,1,1,0,0,250000,
70,-0.0099,0.0001,0.0001,-0.0099,0.3,0.3,0.31,0.31,-2,71,171,69,1,1,0,0,250000,
71,-0.0099,0.0001,0.0001,-0.0099,0.29,0.29,0.3,0.3,-2,72,172,70,1,1,0,0,250000,
72,-0.0099,0.0001,0.0001,-0.0099,0.28,0.28,0.29,0.29,-2,73,173,71,1,1,0,0,250000,
73,-0.0099,0.0001,0.0001,-0.0099,0.27,0.27,0.28,0.28,-2,74,174,72,1,1,0,0,250000,
74,-0.0099,0.0001,0.0001,-0.0099,0.26,0.26,0.27,0.27,-2,75,175,73,1,1,0,0,250000,
75,-0.0099,0.0001,0.0001,-0.0099,0.25,0.25,0.26,0.26,-2,76,176,74,1,1,0,0,250000,
76,-0.0099,0.0001,0.0001,-0.0099,0.24,0.24,0.25,0.25,-2,77,177,75,1,1,0,0,250000,
77,-0.0099,0.0001,0.0001,-0.0099,0.23,0.23,0.24,0.24,-2,78,178,76,1,1,0,0,250000,
78,-0.0099,0.0001,0.0001,-0.0099,0.22,0.22,0.23,0.23,-2,79,179,77,1,1,0,0,250000,
79,-0.0099,0.0001,0.0001,-0.0099,0.21,0.21,0.22,0.22,-2,80,180,78,1,1,0,0,250000,
80,-0.0099,0.0001,0.0001,-0.0099,0.2,0.2,0.21,0.21,-2,81,181,79,1,1,0,0,250000,
81,-0.0099,0.0001,0.0001,-0.0099,0.19,0.19,0.2,0.2,-2,82,182,80,1,1,0,0,250000,
82,-0.0099,0.0001,0.0001,-0.0099,0.18,0.18,0.19,0.19,-2,83,183,81,1,1,0,0,250000,
83,-0.0099,0.0001,0.0001,-0.0099,0.17,0.17,0.18,0.18,-2,84,184,82,1,1,0,0,250000,
84,-0.0099,0.0001,0.0001,-0.0099,0.16,0.16,0.17,0.17,-2,85,185,83,1,1,0,0,250000,
85,-0.0099,0.0001,0.0001,-0.0099,0.15,0.15,0.16,0.16,-2,86,186,84,1,1,0,0,250000,
86,-0.0099,0.0001,0.0001,-0.0099,0.14,0.14,0.15,0.15,-2,87,187,85,1,1,0,0,250000,
87,-0.0099,0.0001,0.0001,-0.0099,0.13,0.13,0.14,0.14,-2,88,188,86,1,1,0,0,250000,
88,-0.0099,0.0001,0.0001,-0.0099,0.12,0.12,0.13,0.13,-2,89,189,87,1,1,0,0,250000,
89,-0.0099,0.0001,0.0001,-0.0099,0.11,0.11,0.12,0.12,-2,90,190,88,1,1,0,0,250000,
90,-0.0099,0.0001,0.0001,-0.0099,0.1,0.1,0.11,0.11,-2,91,191,89,1,1,0,0,250000,
91,-0.0099,0.0001,0.0001,-0.0099,0.09,0.09,0.1,0.1,-2,92,192,90,1,1,0,0,250000,
92,-0.0099,0.0001,0.0001,-0.0099,0.08,0.08,0.09,0.09,-2,93,193,91,1,1,0,0,250000,
93,-0.0099,0.0001,0.0001,-0.0099,0.07,0.07,0.08,0.08,-2,94,194,92,1,1,0,0,250000,
94,-0.0099,0.0001,0.0001,-0.0099,0.06,0.06,0.07,0.07,-2,95,195,93,1,1,0,0,250000,
95,-0.0099,0.0001,0.0001,-0.0099,0.05,0.05,0.06,0.06,-2,96,196,94,1,1,0,0,250000,
96,-0.0099,0.0001,0.0001,-0.0099,0.04,0.04,0.05,0.05,-2,97,197,95,1,1,0,0,250000,
97,-0.0099,0.0001,0.0001,-0.0099,0.03,0.03,0.04,0.04,-2,98,198,96,1,1,0,0,250000,
98,-0.0099,0.0001,0.0001,-0.0099,0.02,0.02,0.03,0.03,-2,99,199,97,1,1,0,0,250000,
99,-0.0099,0.0001,0.0001,-0.0099,0.01,0.01,0.02,0.02,-2,100,200,98,1,1,0,0,250000,
100,-0.0099,0.0001,0.0001,-0.0099,0,0,0.01,0.01,-2,-2,201,99,1,1,0,0,250000,
101,0.0001,0.0101,0.0101,0.0001,1,1,1.01,1.01,-2,102,203,-2,1,1,0,0,250000,
102,0.0001,0.0101,0.0101,0.0001,0.99,0.99,1,1,1,103,204,101,0,1,0,0,250000,
103,0.0001,0.0101,0.0101,0.0001,0.98,0.98,0.99,0.99,2,104,205,102,0,1,0,0,250000,
104,0.0001,0.0101,0.0101,0.0001,0.97,0.97,0.98,0.98,3,105,206,103,0,1,0,0,250000,
105,0.0001,0.0101,0.0101,0.0001,0.96,0.96,0.97,0.97,4,106,207,104,0,1,0,0,250000,
106,0.0001,0.0101,0.0101,0.0001,0.95,0.95,0.96,0.96,5,107,208,105,0,1,0,0,250000,
107,0.0001,0.0101,0.0101,0.0001,0.94,0.94,0.95,0.95,6,108,209,106,0,1,0,0,250000,
108,0.0001,0.0101,0.0101,0.0001,0.93,0.93,0.94,0.94,7,109,210,107,0,1,0,0,250000,
109,0.0001,0.0101,0.0101,0.0001,0.92,0.92,0.93,0.93,8,110,211,108,0,1,0,0,250000,
110,0.0001,0.0101,0.0101,0.0001,0.91,0.91,0.92,0.92,9,111,212,109,0,1,0,0,250000,
111,0.0001,0.0101,0.0101,0.0001,0.9,0.9,0.91,0.91,10,112,213,110,0,1,0,0,250000,
112,0.0001,0.0101,0.0101,0.0001,0.89,0.89,0.9,0.9,11,113,214,111,0,1,0,0,250000,
113,0.0001,0.0101,0.0101,0.0001,0.88,0.88,0.89,0.89,12,114,215,112,0,1,0,0,250000,
114,0.0001,0.0101,0.0101,0.0001,0.87,0.87,0.88,0.88,13,115,216,113,0,1,0,0,250000,
115,0.0001,0.0101,0.0101,0.0001,0.86,0.86,0.87,0.87,14,116,217,114,0,1,0,0,250000,
116,0.0001,0.0101,0.0101,0.0001,0.85,0.85,0.86,0.86,15,117,218,115,0,1,0,0,250000,
117,0.0001,0.0101,0.0101,0.0001,0.84,0.84,0.85,0.85,16,118,219,116,0,1,0,0,250000,
118,0.0001,0.0101,0.0101,0.0001,0.83,0.83,0.84,0.84,17,119,220,117,0,1,0,0,250000,
119,0.0001,0.0101,0.0101,0.0001,0.82,0.82,0.83,0.83,18,120,221,118,0,1,0,0,250000,
120,0.0001,0.0101,0.0101,0.0001,0.81,0.81,0.82,0.82,19,121,222,119,0,1,0,0,250000,
121,0.0001,0.0101,0.0101,0.0001,0.8,0.8,0.81,0.81,20,122,223,120,0,1,0,0,250000,
122,0.0001,0.0101,0.0101,0.0001,0.79,0.79,0.8,0.8,21,123,224,121,0,1,0,0,250000,
123,0.0001,0.0101,0.0101,0.0001,0.78,0.78,0.79,0.79,22,124,225,122,0,1,0,0,250000,
124,0.0001,0.0101,0.0101,0.0001,0.77,0.77,0.78,0.78,23,125,226,123,0,1,0,0,250000,
125,0.0001,0.0101,0.0101,0.0001,0.76,0.76,0.77,0.77,24,126,227,124,0,1,0,0,250000,
126,0.0001,0.0101,0.0101,0.0001,0.75,0.75,0.76,0.76,25,127,228,125,0,1,0,0,250000,
127,0.0001,0.0101,0.0101,0.0001,0.74,0.74,0.75,0.75,26,128,229,126,0,1,0,0,250000,
128,0.0001,0.0101,0.0101,0.0001,0.73,0.73,0.74,0.74,27,129,230,127,0,1,0,0,250000,
129,0.0001,0.0101,0.0101,0.0001,0.72,0.72,0.73,0.73,28,130,231,128,0,1,0,0,250000,
130,0.0001,0.0101,0.0101,0.0001,0.71,0.71,0.72,0.72,29,131,232,129,0,1,0,0,250000,
131,0.0001,0.0101,0.0101,0.0001,0.7,0.7,0.71,0.71,30,132,233,130,0,1,0,0,250000,
132,0.0001,0.0101,0.0101,0.0001,0.69,0.69,0.7,0.7,31,133,234,131,0,1,0,0,250000,
133,0.0001,0.0101,0.0101,0.0001,0.68,0.68,0.69,0.69,32,134,235,132,0,1,0,0,250000,
134,0.0001,0.0101,0.0101,0.0001,0.67,0.67,0.68,0.68,33,135,236,133,0,1,0,0,250000,
135,0.0001,0.0101,0.0101,0.0001,0.66,0.66,0.67,0.67,34,136,237,134,0,1,0,0,250000,
136,0.0001,0.0101,0.0101,0.0001,0.65,0.65,0.66,0.66,35,137,238,135,0,1,0,0,250000,
137,0.0001,0.0101,0.0101,0.0001,0.64,0.64,0.65,0.65,36,138,239,136,0,1,0,0,250000,
138,0.0001,0.0101,0.0101,0.0001,0.63,0.63,0.64,0.64,37,139,240,137,0,1,0,0,250000,
139,0.0001,0.0101,0.0101,0.0001,0.62,0.62,0.63,0.63,38,140,241,138,0,1,0,0,250000,
140,0.0001,0.0101,0.0101,0.0001,0.61,0.61,0.62,0.62,39,141,242,139,0,1,0,0,250000,
141,0.0001,0.0101,0.0101,0.0001,0.6,0.6,0.61,0.61,40,142,243,140,0,1,0,0,250000,
142,0.0001,0.0101,0.0101,0.0001,0.59,0.59,0.6,0.6,41,143,244,141,0,1,0,0,250000,
143,0.0001,0.0101,0.0101,0.0001,0.58,0.58,0.59,0.59,42,144,245,142,0,1,0,0,250000,
144,0.0001,0.0101,0.0101,0.0001,0.57,0.57,0.58,0.58,43,145,246,143,0,1,0,0,250000,
145,0.0001,0.0101,0.0101,0.0001,0.56,0.56,0.57,0.57,44,146,247,144,0,1,0,0,250000,
146,0.0001,0.0101,0.0101,0.0001,0.55,0.55,0.56,0.56,45,147,248,145,0,1,0,0,250000,
147,0.0001,0.0101,0.0101,0.0001,0.54,0.54,0.55,0.55,46,148,249,146,0,1,0,0,250000,
148,0.0001,0.0101,0.0101,0.0001,0.53,0.53,0.54,0.54,47,149,250,147,0,1,0,0,250000,
149,0.0001,0.0101,0.0101,0.0001,0.52,0.52,0.53,0.53,48,150,251,148,0,1,0,0,250000,
150,0.0001,0.0101,0.0101,0.0001,0.51,0.51,0.52,0.52,49,151,252,149,0,1,0,0,250000,
151,0.0001,0.0101,0.0101,0.0001,0.5,0.5,0.51,0.51,50,152,253,150,0,1,0,0,250000,
152,0.0001,0.0101,0.0101,0.0001,0.49,0.49,0.5,0.5,51,153,254,151,0,1,0,0,250000,
153,0.0001,0.0101,0.0101,0.0001,0.48,0.48,0.49,0.49,52,154,255,152,0,1,0,0,250000,
154,0.0001,0.0101,0.0101,0.0001,0.47,0.47,0.48,0.48,53,155,256,153,0,1,0,0,250000,
155,0.0001,0.0101,0.0101,0.0001,0.46,0.46,0.47,0.47,54,156,257,154,0,1,0,0,250000,
156,0.0001,0.0101,0.0101,0.0001,0.45,0.45,0.46,0.46,55,157,258,155,0,1,0,0,250000,
157,0.0001,0.0101,0.0101,0.0001,0.44,0.44,0.45,0.45,56,158,259,156,0,1,0,0,250000,
158,0.0001,0.0101,0.0101,0.0001,0.43,0.43,0.44,0.44,57,159,260,157,0,1,0,0,250000,
159,0.0001,0.0101,0.0101,0.0001,0.42,0.42,0.43,0.43,58,160,261,158,0,1,0,0,250000,
160,0.0001,0.0101,0.0101,0.0001,0.41,0.41,0.42,0.42,59,161,262,159,0,1,0,0,250000,
161,0.0001,0.0101,0.0101,0.0001,0.4,0.4,0.41,0.41,60,162,263,160,0,1,0,0,250000,
162,0.0001,0.0101,0.0101,0.0001,0.39,0.39,0.4,0.4,61,163,264,161,0,1,0,0,250000,
163,0.0001,0.0101,0.0101,0.0001,0.38,0.38,0.39,0.39,62,164,265,162,0,1,0,0,250000,
164,0.0001,0.0101,0.0101,0.0001,0.37,0.37,0.38,0.38,63,165,266,163,0,1,0,0,250000,
165,0.0001,0.0101,0.0101,0.0001,0.36,0.36,0.37,0.37,64,166,267,164,0,1,0,0,250000,
166,0.0001,0.0101,0.0101,0.0001,0.35,0.35,0.36,0.36,65,167,268,165,0,1,0,0,250000,
167,0.0001,0.0101,0.0101,0.0001,0.34,0.34,0.35,0.35,66,168,269,166,0,1,0,0,250000,
168,0.0001,0.0101,0.0101,0.0001,0.33,0.33,0.34,0.34,67,169,270,167,0,1,0,0,250000,
169,0.0001,0.0101,0.0101,0.0001,0.32,0.32,0.33,0.33,68,170,271,168,0,1,0,0,250000,
170,0.0001,0.0101,0.0101,0.0001,0.31,0.31,0.32,0.32,69,171,272,169,0,1,0,0,250000,
171,0.0001,0.0101,0.0101,0.0001,0.3,0.3,0.31,0.31,70,172,273,170,0,1,0,0,250000,
172,0.0001,0.0101,0.0101,0.0001,0.29,0.29,0.3,0.3,71,173,274,171,0,1,0,0,250000,
173,0.0001,0.0101,0.0101,0.0001,0.28,0.28,0.29,0.29,72,174,275,172,0,1,0,0,250000,
174,0.0001,0.0101,0.0101,0.0001,0.27,0.27,0.28,0.28,73,175,276,173,0,1,0,0,250000,
175,0.0001,0.0101,0.0101,0.0001,0.26,0.26,0.27,0.27,74,176,277,174,0,1,0,0,250000,
176,0.0001,0.0101,0.0101,0.0001,0.25,0.25,0.26,0.26,75,177,278,175,0,1,0,0,250000,
177,0.0001,0.0101,0.0101,0.0001,0.24,0.24,0.25,0.25,76,178,279,176,0,1,0,0,250000,
178,0.0001,0.0101,0.0101,0.0001,0.23,0.23,0.24,0.24,77,179,280,177,0,1,0,0,250000,
179,0.0001,0.0101,0.0101,0.0001,0.22,0.22,0.23,0.23,78,180,281,178,0,1,0,0,250000,
180,0.0001,0.0101,0.0101,0.0001,0.21,0.21,0.22,0.22,79,181,282,179,0,1,0,0,250000,
181,0.0001,0.0101,0.0101,0.0001,0.2,0.2,0.21,0.21,80,182,283,180,0,1,0,0,250000,
182,0.0001,0.0101,0.0101,0.0001,0.19,0.19,0.2,0.2,81,183,284,181,0,1,0,0,250000,
183,0.0001,0.0101,0.0101,0.0001,0.18,0.18,0.19,0.19,82,184,285,182,0,1,0,0,250000,
184,0.0001,0.0101,0.0101,0.0001,0.17,0.17,0.18,0.18,83,185,286,183,0,1,0,0,250000,
185,0.0001,0.0101,0.0101,0.0001,0.16,0.16,0.17,0.17,84,186,287,184,0,1,0,0,250000,
186,0.0001,0.0101,0.0101,0.0001,0.15,0.15,0.16,0.16,85,187,288,185,0,1,0,0,250000,
187,0.0001,0.0101,0.0101,0.0001,0.14,0.14,0.15,0.15,86,188,289,186,0,1,0,0,250000,
188,0.0001,0.0101,0.0101,0.0001,0.13,0.13,0.14,0.14,87,189,290,187,0,1,0,0,250000,
189,0.0001,0.0101,0.0101,0.0001,0.12,0.12,0.13,0.13,88,190,291,188,0,1,0,0,250000,
190,0.0001,0.0101,0.0101,0.0001,0.11,0.11,0.12,0.12,89,191,292,189,0,1,0,0,250000,
191,0.0001,0.0101,0.0101,0.0001,0.1,0.1,0.11,0.11,90,192,293,190,0,1,0,0,250000,
192,0.0001,0.0101,0.0101,0.0001,0.09,0.09,0.1,0.1,91,193,294,191,0,1,0,0,250000,
193,0.0001,0.0101,0.0101,0.0001,0.08,0.08,0.09,0.09,92,194,295,192,0,1,0,0,250000,
194,0.0001,0.0101,0.0101,0.0001,0.07,0.07,0.08,0.08,93,195,296,193,0,1,0,0,250000,
195,0.0001,0.0101,0.0101,0.0001,0.06,0.06,0.07,0.07,94,196,297,194,0,1,0,0,250000,
196,0.0001,0.0101,0.0101,0.0001,0.05,0.05,0.06,0.06,95,197,298,195,0,1,0,0,250000,
197,0.0001,0.0101,0.0101,0.0001,0.04,0.04,0.05,0.05,96,198,299,196,0,1,0,0,250000,
198,0.0001,0.0101,0.0101,0.0001,0.03,0.03,0.04,0.04,97,199,300,197,0,1,0,0,250000,
199,0.0001,0.0101,0.0101,0.0001,0.02,0.02,0.03,0.03,98,200,301,198,0,1,0,0,250000,
200,0.0001,0.0101,0.0101,0.0001,0.01,0.01,0.02,0.02,99,201,302,199,0,1,0,0,250000,
201,0.0001,0.0101,0.0101,0.0001,0,0,0.01,0.01,100,202,303,200,0,1,0,0,250000,
202,0.0001,0.0101,0.0101,0.0001,-0.01,-0.01,0,0,-2,-2,304,201,1,1,0,0,250000,
203,0.0101,0.0201,0.0201,0.0101,1,1,1.01,1.01,101,204,305,-2,1,1,0,0,250000,
204,0.0101,0.0201,0.0201,0.0101,0.99,0.99,1,1,102,205,306,203,0,1,0,0,250000,
205,0.0101,0.0201,0.0201,0.0101,0.98,0.98,0.99,0.99,103,206,307,204,0,1,0,0,250000,
206,0.0101,0.0201,0.0201,0.0101,0.97,0.97,0.98,0.98,104,207,308,205,0,1,0,0,250000,
207,0.0101,0.0201,0.0201,0.0101,0.96,0.96,0.97,0.97,105,208,309,206,0,1,0,0,250000,
208,0.0101,0.0201,0.0201,0.0101,0.95,0.95,0.96,0.96,106,209,310,207,0,1,0,0,250000,
209,0.0101,0.0201,0.0201,0.0101,0.94,0.94,0.95,0.95,107,210,311,208,0,1,0,0,250000,
210,0.0101,0.0201,0.0201,0.0101,0.93,0.93,0.94,0.94,108,211,312,209,0,1,0,0,250000,
211,0.0101,0.0201,0.0201,0.0101,0.92,0.92,0.93,0.93,109,212,313,210,0,1,0,0,250000,
212,0.0101,0.0201,0.0201,0.0101,0.91,0.91,0.92,0.92,110,213,314,211,0,1,0,0,250000,
213,0.0101,0.0201,0.0201,0.0101,0.9,0.9,0.91,0.91,111,214,315,212,0,1,0,0,250000,
214,0.0101,0.0201,0.0201,0.0101,0.89,0.89,0.9,0.9,112,215,316,213,0,1,0,0,250000,
215,0.0101,0.0201,0.0201,0.0101,0.88,0.88,0.89,0.89,113,216,317,214,0,1,0,0,250000,
216,0.0101,0.0201,0.0201,0.0101,0.87,0.87,0.88,0.88,114,217,318,215,0,1,0,0,250000,
217,0.0101,0.0201,0.0201,0.0101,0.86,0.86,0.87,0.87,115,218,319,216,0,1,0,0,250000,
218,0.0101,0.0201,0.0201,0.0101,0.85,0.85,0.86,0.86,116,219,320,217,0,1,0,0,250000,
219,0.0101,0.0201,0.0201,0.0101,0.84,0.84,0.85,0.85,117,220,321,218,0,1,0,0,250000,
220,0.0101,0.0201,0.0201,0.0101,0.83,0.83,0.84,0.84,118,221,322,219,0,1,0,0,250000,
221,0.0101,0.0201,0.0201,0.0101,0.82,0.82,0.83,0.83,119,222,323,220,0,1,0,0,250000,
222,0.0101,0.0201,0.0201,0.0101,0.81,0.81,0.82,0.82,120,223,324,221,0,1,0,0,250000,
223,0.0101,0.0201,0.0201,0.0101,0.8,0.8,0.81,0.81,121,224,325,222,0,1,0,0,250000,
224,0.0101,0.0201,0.0201,0.0101,0.79,0.79,0.8,0.8,122,225,326,223,0,1,0,0,250000,
225,0.0101,0.0201,0.0201,0.0101,0.78,0.78,0.79,0.79,123,226,327,224,0,1,0,0,250000,
226,0.0101,0.0201,0.0201,0.0101,0.77,0.77,0.78,0.78,124,227,328,225,0,1,0,0,250000,
227,0.0101,0.0201,0.0201,0.0101,0.76,0.76,0.77,0.77,125,228,329,226,0,1,0,0,250000,
228,0.0101,0.0201,0.0201,0.0101,0.75,0.75,0.76,0.76,126,229,330,227,0,1,0,0,250000,
229,0.0101,0.0201,0.0201,0.0101,0.74,0.74,0.75,0.75,127,230,331,228,0,1,0,0,250000,
230,0.0101,0.0201,0.0201,0.0101,0.73,0.73,0.74,0.74,128,231,332,229,0,1,0,0,250000,
231,0.0101,0.0201,0.0201,0.0101,0.72,0.72,0.73,0.73,129,232,333,230,0,1,0,0,250000,
232,0.0101,0.0201,0.0201,0.0101,0.71,0.71,0.72,0.72,130,233,334,231,0,1,0,0,250000,
233,0.0101,0.0201,0.0201,0.0101,0.7,0.7,0.71,0.71,131,234,335,232,0,1,0,0,250000,
234,0.0101,0.0201,0.0201,0.0101,0.69,0.69,0.7,0.7,132,235,336,233,0,1,0,0,250000,
235,0.0101,0.0201,0.0201,0.0101,0.68,0.68,0.69,0.69,133,236,337,234,0,1,0,0,250000,
236,0.0101,0.0201,0.0201,0.0101,0.67,0.67,0.68,0.68,134,237,338,235,0,1,0,0,250000,
237,0.0101,0.0201,0.0201,0.0101,0.66,0.66,0.67,0.67,135,238,339,236,0,1,0,0,250000,
238,0.0101,0.0201,0.0201,0.0101,0.65,0.65,0.66,0.66,136,239,340,237,0,1,0,0,250000,
239,0.0101,0.0201,0.0201,0.0101,0.64,0.64,0.65,0.65,137,240,341,238,0,1,0,0,250000,
240,0.0101,0.0201,0.0201,0.0101,0.63,0.63,0.64,0.64,138,241,342,239,0,1,0,0,250000,
241,0.0101,0.0201,0.0201,0.0101,0.62,0.62,0.63,0.63,139,242,343,240,0,1,0,0,250000,
242,0.0101,0.0201,0.0201,0.0101,0.61,0.61,0.62,0.62,140,243,344,241,0,1,0,0,250000,
243,0.0101,0.0201,0.0201,0.0101,0.6,0.6,0.61,0.61,141,244,345,242,0,1,0,0,250000,
244,0.0101,0.0201,0.0201,0.0101,0.59,0.59,0.6,0.6,142,245,346,243,0,1,0,0,250000,
245,0.0101,0.0201,0.0201,0.0101,0.58,0.58,0.59,0.59,143,246,347,244,0,1,0,0,250000,
246,0.0101,0.0201,0.0201,0.0101,0.57,0.57,0.58,0.58,144,247,348,245,0,1,0,0,250000,
247,0.0101,0.0201,0.0201,0.0101,0.56,0.56,0.57,0.57,145,248,349,246,0,1,0,0,250000,
248,0.0101,0.0201,0.0201,0.0101,0.55,0.55,0.56,0.56,146,249,350,247,0,1,0,0,250000,
249,0.0101,0.0201,0.0201,0.0101,0.54,0.54,0.55,0.55,147,250,351,248,0,1,0,0,250000,
250,0.0101,0.0201,0.0201,0.0101,0.53,0.53,0.54,0.54,148,251,352,249,0,1,0,0,250000,
251,0.0101,0.0201,0.0201,0.0101,0.52,0.52,0.53,0.53,149,252,353,250,0,1,0,0,250000,
252,0.0101,0.0201,0.0201,0.0101,0.51,0.51,0.52,0.52,150,253,354,251,0,1,0,0,250000,
253,0.0101,0.0201,0.0201,0.0101,0.5,0.5,0.51,0.51,151,254,355,252,0,1,0,0,250000,
254,0.0101,0.0201,0.0201,0.0101,0.49,0.49,0.5,0.5,152,255,356,253,0,1,0,0,250000,
255,0.0101,0.0201,0.0201,0.0101,0.48,0.48,0.49,0.49,153,256,357,254,0,1,0,0,250000,
256,0.0101,0.0201,0.0201,0.0101,0.47,0.47,0.48,0.48,154,257,358,255,0,1,0,0,250000,
257,0.0101,0.0201,0.0201,0.0101,0.46,0.46,0.47,0.47,155,258,359,256,0,1,0,0,250000,
258,0.0101,0.0201,0.0201,0.0101,0.45,0.45,0.46,0.46,156,259,360,257,0,1,0,0,250000,
259,0.0101,0.0201,0.0201,0.0101,0.44,0.44,0.45,0.45,157,260,361,258,0,1,0,0,250000,
260,0.0101,0.0201,0.0201,0.0101,0.43,0.43,0.44,0.44,158,261,362,259,0,1,0,0,250000,
261,0.0101,0.0201,0.0201,0.0101,0.42,0.42,0.43,0.43,159,262,363,260,0,1,0,0,250000,
262,0.0101,0.0201,0.0201,0.0101,0.41,0.41,0.42,0.42,160,263,364,261,0,1,0,0,250000,
263,0.0101,0.0201,0.0201,0.0101,0.4,0.4,0.41,0.41,161,264,365,262,0,1,0,0,250000,
264,0.0101,0.0201,0.0201,0.0101,0.39,0.39,0.4,0.4,162,265,366,263,0,1,0,0,250000,
265,0.0101,0.0201,0.0201,0.0101,0.38,0.38,0.39,0.39,163,266,367,264,0,1,0,0,250000,
266,0.0101,0.0201,0.0201,0.0101,0.37,0.37,0.38,0.38,164,267,368,265,0,1,0,0,250000,
267,0.0101,0.0201,0.0201,0.0101,0.36,0.36,0.37,0.37,165,268,369,266,0,1,0,0,250000,
268,0.0101,0.0201,0.0201,0.0101,0.35,0.35,0.36,0.36,166,269,370,267,0,1,0,0,250000,
269,0.0101,0.0201,0.0201,0.0101,0.34,0.34,0.35,0.35,167,270,371,268,0,1,0,0,250000,
270,0.0101,0.0201,0.0201,0.0101,0.33,0.33,0.34,0.34,168,271,372,269,0,1,0,0,250000,
271,0.0101,0.0201,0.0201,0.0101,0.32,0.32,0.33,0.33,169,272,373,270,0,1,0,0,250000,
272,0.0101,0.0201,0.0201,0.0101,0.31,0.31,0.32,0.32,170,273,374,271,0,1,0,0,250000,
273,0.0101,0.0201,0.0201,0.0101,0.3,0.3,0.31,0.31,171,274,375,272,0,1,0,0,250000,
274,0.0101,0.0201,0.0201,0.0101,0.29,0.29,0.3,0.3,172,275,376,273,0,1,0,0,250000,
275,0.0101,0.0201,0.0201,0.0101,0.28,0.28,0.29,0.29,173,276,377,274,0,1,0,0,250000,
276,0.0101,0.0201,0.0201,0.0101,0.27,0.27,0.28,0.28,174,277,378,275,0,1,0,0,250000,
277,0.0101,0.0201,0.0201,0.0101,0.26,0.26,0.27,0.27,175,278,379,276,0,1,0,0,250000,
278,0.0101,0.0201,0.0201,0.0101,0.25,0.25,0.26,0.26,176,279,380,277,0,1,0,0,250000,
279,0.0101,0.0201,0.0201,0.0101,0.24,0.24,0.25,0.25,177,280,381,278,0,1,0,0,250000,
280,0.0101,0.0201,0.0201,0.0101,0.23,0.23,0.24,0.24,178,281,382,279,0,1,0,0,250000,
281,0.0101,0.0201,0.0201,0.0101,0.22,0.22,0.23,0.23,179,282,383,280,0,1,0,0,250000,
282,0.0101,0.0201,0.0201,0.0101,0.21,0.21,0.22,0.22,180,283,384,281,0,1,0,0,250000,
283,0.0101,0.0201,0.0201,0.0101,0.2,0.2,0.21,0.21,181,284,385,282,0,1,0,0,250000,
284,0.0101,0.0201,0.0201,0.0101,0.19,0.19,0.2,0.2,182,285,386,283,0,1,0,0,250000,
285,0.0101,0.0201,0.0201,0.0101,0.18,0.18,0.19,0.19,183,286,387,284,0,1,0,0,250000,
286,0.0101,0.0201,0.0201,0.0101,0.17,0.17,0.18,0.18,184,287,388,285,0,1,0,0,250000,
287,0.0101,0.0201,0.0201,0.0101,0.16,0.16,0.17,0.17,185,288,389,286,0,1,0,0,250000,
288,0.0101,0.0201,0.0201,0.0101,0.15,0.15,0.16,0.16,186,289,390,287,0,1,0,0,250000,
289,0.0101,0.0201,0.0201,0.0101,0.14,0.14,0.15,0.15,187,290,391,288,0,1,0,0,250000,
290,0.0101,0.0201,0.0201,0.0101,0.13,0.13,0.14,0.14,188,291,392,289,0,1,0,0,250000,
291,0.0101,0.0201,0.0201,0.0101,0.12,0.12,0.13,0.13,189,292,393,290,0,1,0,0,250000,
292,0.0101,0.0201,0.0201,0.0101,0.11,0.11,0.12,0.12,190,293,394,291,0,1,0,0,250000,
293,0.0101,0.0201,0.0201,0.0101,0.1,0.1,0.11,0.11,191,294,395,292,0,1,0,0,250000,
294,0.0101,0.0201,0.0201,0.0101,0.09,0.09,0.1,0.1,192,295,396,293,0,1,0,0,250000,
295,0.0101,0.0201,0.0201,0.0101,0.08,0.08,0.09,0.09,193,296,397,294,0,1,0,0,250000,
296,0.0101,0.0201,0.0201,0.0101,0.07,0.07,0.08,0.08,194,297,398,295,0,1,0,0,250000,
297,0.0101,0.0201,0.0201,0.0101,0.06,0.06,0.07,0.07,195,298,399,296,0,1,0,0,250000,
298,0.0101,0.0201,0.0201,0.0101,0.05,0.05,0.06,0.06,196,299,400,297,0,1,0,0,250000,
299,0.0101,0.0201,0.0201,0.0101,0.04,0.04,0.05,0.05,197,300,401,298,0,1,0,0,250000,
300,0.0101,0.0201,0.0201,0.0101,0.03,0.03,0.04,0.04,198,301,402,299,0,1,0,0,250000,
301,0.0101,0.0201,0.0201,0.0101,0.02,0.02,0.03,0.03,199,302,403,300,0,1,0,0,250000,
302,0.0101,0.0201,0.0201,0.0101,0.01,0.01,0.02,0.02,200,303,404,301,0,1,0,0,250000,
303,0.0101,0.0201,0.0201,0.0101,0,0,0.01,0.01,201,304,405,302,0,1,0,0,250000,
304,0.0101,0.0201,0.0201,0.0101,-0.01,-0.01,0,0,202,-2,406,303,1,1,0,0,250000,
305,0.0201,0.0301,0.0301,0.0201,1,1,1.01,1.01,203,306,407,-2,1,1,0,0,250000,
306,0.0201,0.0301,0.0301,0.0201,0.99,0.99,1,1,204,307,408,305,0,1,0,0,250000,
307,0.0201,0.0301,0.0301,0.0201,0.98,0.98,0.99,0.99,205,308,409,306,0,1,0,0,250000,
308,0.0201,0.0301,0.0301,0.0201,0.97,0.97,0.98,0.98,206,309,410,307,0,1,0,0,250000,
309,0.0201,0.0301,0.0301,0.0201,0.96,0.96,0.97,0.97,207,310,411,308,0,1,0,0,250000,
310,0.0201,0.0301,0.0301,0.0201,0.95,0.95,0.96,0.96,208,311,412,309,0,1,0,0,250000,
311,0.0201,0.0301,0.0301,0.0201,0.94,0.94,0.95,0.95,209,312,413,310,0,1,0,0,250000,
312,0.0201,0.0301,0.0301,0.0201,0.93,0.93,0.94,0.94,210,313,414,311,0,1,0,0,250000,
313,0.0201,0.0301,0.0301,0.0201,0.92,0.92,0.93,0.93,211,314,415,312,0,1,0,0,250000,
314,0.0201,0.0301,0.0301,0.0201,0.91,0.91,0.92,0.92,212,315,416,313,0,1,0,0,250000,
315,0.0201,0.0301,0.0301,0.0201,0.9,0.9,0.91,0.91,213,316,417,314,0,1,0,0,250000,
316,0.0201,0.0301,0.0301,0.0201,0.89,0.89,0.9,0.9,214,317,418,315,0,1,0,0,250000,
317,0.0201,0.0301,0.0301,0.0201,0.88,0.88,0.89,0.89,215,318,419,316,0,1,0,0,250000,
318,0.0201,0.0301,0.0301,0.0201,0.87,0.87,0.88,0.88,216,319,420,317,0,1,0,0,250000,
319,0.0201,0.0301,0.0301,0.0201,0.86,0.86,0.87,0.87,217,320,421,318,0,1,0,0,250000,
320,0.0201,0.0301,0.0301,0.0201,0.85,0.85,0.86,0.86,218,321,422,319,0,1,0,0,250000,
321,0.0201,0.0301,0.0301,0.0201,0.84,0.84,0.85,0.85,219,322,423,320,0,1,0,0,250000,
322,0.0201,0.0301,0.0301,0.0201,0.83,0.83,0.84,0.84,220,323,424,321,0,1,0,0,250000,
323,0.0201,0.0301,0.0301,0.0201,0.82,0.82,0.83,0.83,221,324,425,322,0,1,0,0,250000,
324,0.0201,0.0301,0.0301,0.0201,0.81,0.81,0.82,0.82,222,325,426,323,0,1,0,0,250000,
325,0.0201,0.0301,0.0301,0.0201,0.8,0.8,0.81,0.81,223,326,427,324,0,1,0,0,250000,
326,0.0201,0.0301,0.0301,0.0201,0.79,0.79,0.8,0.8,224,327,428,325,0,1,0,0,250000,
327,0.0201,0.0301,0.0301,0.0201,0.78,0.78,0.79,0.79,225,328,429,326,0,1,0,0,250000,
328,0.0201,0.0301,0.0301,0.0201,0.77,0.77,0.78,0.78,226,329,430,327,0,1,0,0,250000,
329,0.0201,0.0301,0.0301,0.0201,0.76,0.76,0.77,0.77,227,330,431,328,0,1,0,0,250000,
330,0.0201,0.0301,0.0301,0.0201,0.75,0.75,0.76,0.76,228,331,432,329,0,1,0,0,250000,
331,0.0201,0.0301,0.0301,0.0201,0.74,0.74,0.75,0.75,229,332,433,330,0,1,0,0,250000,
332,0.0201,0.0301,0.0301,0.0201,0.73,0.73,0.74,0.74,230,333,434,331,0,1,0,0,250000,
333,0.0201,0.0301,0.0301,0.0201,0.72,0.72,0.73,0.73,231,334,435,332,0,1,0,0,250000,
334,0.0201,0.0301,0.0301,0.0201,0.71,0.71,0.72,0.72,232,335,436,333,0,1,0,0,250000,
335,0.0201,0.0301,0.0301,0.0201,0.7,0.7,0.71,0.71,233,336,437,334,0,1,0,0,250000,
336,0.0201,0.0301,0.0301,0.0201,0.69,0.69,0.7,0.7,234,337,438,335,0,1,0,0,250000,
337,0.0201,0.0301,0.0301,0.0201,0.68,0.68,0.69,0.69,235,338,439,336,0,1,0,0,250000,
338,0.0201,0.0301,0.0301,0.0201,0.67,0.67,0.68,0.68,236,339,440,337,0,1,0,0,250000,
339,0.0201,0.0301,0.0301,0.0201,0.66,0.66,0.67,0.67,237,340,441,338,0,1,0,0,250000,
340,0.0201,0.0301,0.0301,0.0201,0.65,0.65,0.66,0.66,238,341,442,339,0,1,0,0,250000,
341,0.0201,0.0301,0.0301,0.0201,0.64,0.64,0.65,0.65,239,342,443,340,0,1,0,0,250000,
342,0.0201,0.0301,0.0301,0.0201,0.63,0.63,0.64,0.64,240,343,444,341,0,1,0,0,250000,
343,0.0201,0.0301,0.0301,0.0201,0.62,0.62,0.63,0.63,241,344,445,342,0,1,0,0,250000,
344,0.0201,0.0301,0.0301,0.0201,0.61,0.61,0.62,0.62,242,345,446,343,0,1,0,0,250000,
345,0.0201,0.0301,0.0301,0.0201,0.6,0.6,0.61,0.61,243,346,447,344,0,1,0,0,250000,
346,0.0201,0.0301,0.0301,0.0201,0.59,0.59,0.6,0.6,244,347,448,345,0,1,0,0,250000,
347,0.0201,0.0301,0.0301,0.0201,0.58,0.58,0.59,0.59,245,348,449,346,0,1,0,0,250000,
348,0.0201,0.0301,0.0301,0.0201,0.57,0.57,0.58,0.58,246,349,450,347,0,1,0,0,250000,
349,0.0201,0.0301,0.0301,0.0201,0.56,0.56,0.57,0.57,247,350,451,348,0,1,0,0,250000,
350,0.0201,0.0301,0.0301,0.0201,0.55,0.55,0.56,0.56,248,351,452,349,0,1,0,0,250000,
351,0.0201,0.0301,0.0301,0.0201,0.54,0.54,0.55,0.55,249,352,453,350,0,1,0,0,250000,
352,0.0201,0.0301,0.0301,0.0201,0.53,0.53,0.54,0.54,250,353,454,351,0,1,0,0,250000,
353,0.0201,0.0301,0.0301,0.0201,0.52,0.52,0.53,0.53,251,354,455,352,0,1,0,0,250000,
354,0.0201,0.0301,0.0301,0.0201,0.51,0.51,0.52,0.52,252,355,456,353,0,1,0,7.90203e-50,250000,
355,0.0201,0.0301,0.0301,0.0201,0.5,0.5,0.51,0.51,253,356,457,354,0,1,0,0,250000,
356,0.0201,0.0301,0.0301,0.0201,0.49,0.49,0.5,0.5,254,357,458,355,0,1,0,-7.90203e-50,250000,
357,0.0201,0.0301,0.0301,0.0201,0.48,0.48,0.49,0.49,255,358,459,356,0,1,0,0,250000,
358,0.0201,0.0301,0.0301,0.0201,0.47,0.47,0.48,0.48,256,359,460,357,0,1,0,0,250000,
359,0.0201,0.0301,0.0301,0.0201,0.46,0.46,0.47,0.47,257,360,461,358,0,1,0,0,250000,
360,0.0201,0.0301,0.0301,0.0201,0.45,0.45,0.46,0.46,258,361,462,359,0,1,0,0,250000,
361,0.0201,0.0301,0.0301,0.0201,0.44,0.44,0.45,0.45,259,362,463,360,0,1,0,0,250000,
362,0.0201,0.0301,0.0301,0.0201,0.43,0.43,0.44,0.44,260,363,464,361,0,1,0,0,250000,