'cellnumber','cornerlocs_x','cornerlocs_y','adjacent_cells','edge_state','initial_conditions'
1,-0.00335,-1e-05,-1e-05,-0.00335,0.09926,0.09889,0.1023,0.10268,-2,2,32,-2,3,1,1,0,210000,
2,-0.00335,-1e-05,-1e-05,-0.00335,0.09584,0.09548,0.09889,0.09926,-2,3,33,1,3,1,1,0,210000,
3,-0.00335,-1e-05,-1e-05,-0.00335,0.09241,0.09207,0.09548,0.09584,-2,4,34,2,3,1,1,0,210000,
4,-0.00335,-1e-05,-1e-05,-0.00335,0.08899,0.08866,0.09207,0.09241,-2,5,35,3,3,1,1,0,210000,
5,-0.00335,-1e-05,-1e-05,-0.00335,0.08557,0.08525,0.08866,0.08899,-2,6,36,4,3,1,1,0,210000,
6,-0.00335,-1e-05,-1e-05,-0.00335,0.08214,0.08184,0.08525,0.08557,-2,7,37,5,3,1,1,0,210000,
7,-0.00335,-1e-05,-1e-05,-0.00335,0.07872,0.07843,0.08184,0.08214,-2,8,38,6,3,1,1,0,210000,
8,-0.00335,-1e-05,-1e-05,-0.00335,0.0753,0.07502,0.07843,0.07872,-2,9,39,7,3,1,1,0,210000,
9,-0.00335,-1e-05,-1e-05,-0.00335,0.07188,0.07161,0.07502,0.0753,-2,10,40,8,3,1,1,0,210000,
10,-0.00335,-1e-05,-1e-05,-0.00335,0.06845,0.0682,0.07161,0.07188,-2,11,41,9,3,1,1,0,210000,
11,-0.00335,-1e-05,-1e-05,-0.00335,0.06503,0.06479,0.0682,0.06845,-2,12,42,10,3,1,1,0,210000,
12,-0.00335,-1e-05,-1e-05,-0.00335,0.06161,0.06138,0.06479,0.06503,-2,13,43,11,3,1,1,0,210000,
13,-0.00335,-1e-05,-1e-05,-0.00335,0.05819,0.05797,0.06138,0.06161,-2,14,44,12,3,1,1,0,210000,
14,-0.00335,-1e-05,-1e-05,-0.00335,0.05476,0.05456,0.05797,0.05819,-2,15,45,13,3,1,1,0,210000,
15,-0.00335,-1e-05,-1e-05,-0.00335,0.05134,0.05115,0.05456,0.05476,-2,16,46,14,3,1,1,0,210000,
16,-0.00335,-1e-05,-1e-05,-0.00335,0.04792,0.04774,0.05115,0.05134,-2,17,47,15,3,1,1,0,210000,
17,-0.00335,-1e-05,-1e-05,-0.00335,0.0445,0.04433,0.04774,0.04792,-2,18,48,16,3,1,1,0,210000,
18,-0.00335,-1e-05,-1e-05,-0.00335,0.04107,0.04092,0.04433,0.0445,-2,19,49,17,3,1,1,0,210000,
19,-0.00335,-1e-05,-1e-05,-0.00335,0.03765,0.03751,0.04092,0.04107,-2,20,50,18,3,1,1,0,210000,
20,-0.00335,-1e-05,-1e-05,-0.00335,0.03423,0.0341,0.03751,0.03765,-2,21,51,19,3,1,1,0,210000,
21,-0.00335,-1e-05,-1e-05,-0.00335,0.0308,0.03069,0.0341,0.03423,-2,22,52,20,3,1,1,0,210000,
22,-0.00335,-1e-05,-1e-05,-0.00335,0.02738,0.02728,0.03069,0.0308,-2,23,53,21,3,1,1,0,210000,
23,-0.00335,-1e-05,-1e-05,-0.00335,0.02396,0.02387,0.02728,0.02738,-2,24,54,22,3,1,1,0,210000,
24,-0.00335,-1e-05,-1e-05,-0.00335,0.02054,0.02046,0.02387,0.02396,-2,25,55,23,3,1,1,0,210000,
25,-0.00335,-1e-05,-1e-05,-0.00335,0.01711,0.01705,0.02046,0.02054,-2,26,56,24,3,1,1,0,210000,
26,-0.00335,-1e-05,-1e-05,-0.00335,0.01369,0.01364,0.01705,0.01711,-2,27,57,25,3,1,1,0,210000,
27,-0.00335,-1e-05,-1e-05,-0.00335,0.01027,0.01023,0.01364,0.01369,-2,28,58,26,3,1,1,0,210000,
28,-0.00335,-1e-05,-1e-05,-0.00335,0.00685,0.00682,0.01023,0.01027,-2,29,59,27,3,1,1,0,210000,
29,-0.00335,-1e-05,-1e-05,-0.00335,0.00342,0.00341,0.00682,0.00685,-2,30,60,28,3,1,1,0,210000,
30,-0.00335,-1e-05,-1e-05,-0.00335,0,0,0.00341,0.00342,-2,-2,61,29,3,1,1,0,210000,
31,-1e-05,0.00332,0.00332,-1e-05,0.1023,0.10192,0.10532,0.10571,-2,32,63,-2,1,0.983333,4.67493,-0.00637298,206840,
32,-1e-05,0.00332,0.00332,-1e-05,0.09889,0.09852,0.10192,0.1023,1,33,64,31,0,0.983333,4.67493,0.00637298,206840,
33,-1e-05,0.00332,0.00332,-1e-05,0.09548,0.09513,0.09852,0.09889,2,34,65,32,0,0.981879,4.6467,0.0212238,206839,
34,-1e-05,0.00332,0.00332,-1e-05,0.09207,0.09173,0.09513,0.09548,3,35,66,33,0,0.984599,4.6608,0.0408728,206837,
35,-1e-05,0.00332,0.00332,-1e-05,0.08866,0.08833,0.09173,0.09207,4,36,67,34,0,0.985836,4.66411,0.0574732,206841,
36,-1e-05,0.00332,0.00332,-1e-05,0.08525,0.08494,0.08833,0.08866,5,37,68,35,0,0.985406,4.66743,0.0710374,206840,
37,-1e-05,0.00332,0.00332,-1e-05,0.08184,0.08154,0.08494,0.08525,6,38,69,36,0,0.952424,4.57043,0.0638508,206857,
38,-1e-05,0.00332,0.00332,-1e-05,0.07843,0.07814,0.08154,0.08184,7,39,70,37,0,0.976857,4.61099,0.0624647,206840,
39,-1e-05,0.00332,0.00332,-1e-05,0.07502,0.07474,0.07814,0.07843,8,40,71,38,0,0.952576,4.57017,0.0586674,206858,
40,-1e-05,0.00332,0.00332,-1e-05,0.07161,0.07135,0.07474,0.07502,9,41,72,39,0,0.97776,4.61735,0.061948,206839,
41,-1e-05,0.00332,0.00332,-1e-05,0.0682,0.06795,0.07135,0.07161,10,42,73,40,0,0.9835,4.65143,0.0838487,206841,
42,-1e-05,0.00332,0.00332,-1e-05,0.06479,0.06455,0.06795,0.0682,11,43,74,41,0,0.953099,4.56249,0.0775109,206861,
43,-1e-05,0.00332,0.00332,-1e-05,0.06138,0.06115,0.06455,0.06479,12,44,75,42,0,0.986398,4.66799,0.0738304,206843,
44,-1e-05,0.00332,0.00332,-1e-05,0.05797,0.05776,0.06115,0.06138,13,45,76,43,0,0.983406,4.64604,0.0882559,206843,
45,-1e-05,0.00332,0.00332,-1e-05,0.05456,0.05436,0.05776,0.05797,14,46,77,44,0,0.978885,4.63329,0.107407,206843,
46,-1e-05,0.00332,0.00332,-1e-05,0.05115,0.05096,0.05436,0.05456,15,47,78,45,0,0.977744,4.64176,0.123679,206848,
47,-1e-05,0.00332,0.00332,-1e-05,0.04774,0.04756,0.05096,0.05115,16,48,79,46,0,0.952602,4.56269,0.103727,206862,
48,-1e-05,0.00332,0.00332,-1e-05,0.04433,0.04417,0.04756,0.04774,17,49,80,47,0,0.984694,4.64934,0.0955526,206847,
49,-1e-05,0.00332,0.00332,-1e-05,0.04092,0.04077,0.04417,0.04433,18,50,81,48,0,0.952406,4.56162,0.0818249,206863,
50,-1e-05,0.00332,0.00332,-1e-05,0.03751,0.03737,0.04077,0.04092,19,51,82,49,0,0.986681,4.66595,0.0787343,206845,
51,-1e-05,0.00332,0.00332,-1e-05,0.0341,0.03397,0.03737,0.03751,20,52,83,50,0,0.986011,4.65535,0.0939468,206847,
52,-1e-05,0.00332,0.00332,-1e-05,0.03069,0.03058,0.03397,0.0341,21,53,84,51,0,0.985241,4.65474,0.11003,206843,
53,-1e-05,0.00332,0.00332,-1e-05,0.02728,0.02718,0.03058,0.03069,22,54,85,52,0,0.987597,4.668,0.124566,206846,
54,-1e-05,0.00332,0.00332,-1e-05,0.02387,0.02378,0.02718,0.02728,23,55,86,53,0,0.980923,4.62805,0.13462,206846,
55,-1e-05,0.00332,0.00332,-1e-05,0.02046,0.02038,0.02378,0.02387,24,56,87,54,0,0.952198,4.55635,0.119442,206864,
56,-1e-05,0.00332,0.00332,-1e-05,0.01705,0.01699,0.02038,0.02046,25,57,88,55,0,0.98913,4.67444,0.110347,206847,
57,-1e-05,0.00332,0.00332,-1e-05,0.01364,0.01359,0.01699,0.01705,26,58,89,56,0,0.983372,4.64497,0.115687,206846,
58,-1e-05,0.00332,0.00332,-1e-05,0.01023,0.01019,0.01359,0.01364,27,59,90,57,0,0.952188,4.54077,0.10179,206861,
59,-1e-05,0.00332,0.00332,-1e-05,0.00682,0.00679,0.01019,0.01023,28,60,91,58,0,0.952148,4.55156,0.0435446,206865,
60,-1e-05,0.00332,0.00332,-1e-05,0.00341,0.0034,0.00679,0.00682,29,61,92,59,0,0.97606,4.59193,0.0322144,206844,
61,-1e-05,0.00332,0.00332,-1e-05,0,0,0.0034,0.00341,30,62,93,60,0,0.952137,4.55192,0.0194693,206865,
62,-1e-05,0.00332,0.00332,-1e-05,-0.00341,-0.0034,0,0,-2,-2,94,61,1,0.952137,4.55192,-0.0194693,206865,
63,0.00332,0.00665,0.00665,0.00332,0.10192,0.10153,0.10492,0.10532,31,64,95,-2,1,0.983532,4.67905,0.00381325,206853,
64,0.00332,0.00665,0.00665,0.00332,0.09852,0.09815,0.10153,0.10192,32,65,96,63,0,0.983532,4.67905,-0.00381325,206853,
65,0.00332,0.00665,0.00665,0.00332,0.09513,0.09476,0.09815,0.09852,33,66,97,64,0,0.997441,4.7014,-0.0180083,206850,
66,0.00332,0.00665,0.00665,0.00332,0.09173,0.09138,0.09476,0.09513,34,67,98,65,0,0.996521,4.70125,-0.03208,206859,
67,0.00332,0.00665,0.00665,0.00332,0.08833,0.08799,0.09138,0.09173,35,68,99,66,0,0.994518,4.6905,-0.051777,206860,
68,0.00332,0.00665,0.00665,0.00332,0.08494,0.08461,0.08799,0.08833,36,69,100,67,0,0.993002,4.69271,-0.0753199,206856,
69,0.00332,0.00665,0.00665,0.00332,0.08154,0.08122,0.08461,0.08494,37,70,101,68,0,0.944792,4.55942,-0.0648538,206847,
70,0.00332,0.00665,0.00665,0.00332,0.07814,0.07784,0.08122,0.08154,38,71,102,69,0,1.00279,4.71259,-0.065809,206866,
71,0.00332,0.00665,0.00665,0.00332,0.07474,0.07446,0.07784,0.07814,39,72,103,70,0,0.947222,4.5735,-0.0606809,206847,
72,0.00332,0.00665,0.00665,0.00332,0.07135,0.07107,0.07446,0.07474,40,73,104,71,0,1.0054,4.72779,-0.0582121,206866,
73,0.00332,0.00665,0.00665,0.00332,0.06795,0.06769,0.07107,0.07135,41,74,105,72,0,0.995991,4.69706,-0.0781069,206860,
74,0.00332,0.00665,0.00665,0.00332,0.06455,0.0643,0.06769,0.06795,42,75,106,73,0,0.94863,4.56482,-0.0743104,206852,
75,0.00332,0.00665,0.00665,0.00332,0.06115,0.06092,0.0643,0.06455,43,76,107,74,0,0.99539,4.70099,-0.0775803,206861,
76,0.00332,0.00665,0.00665,0.00332,0.05776,0.05753,0.06092,0.06115,44,77,108,75,0,0.995233,4.68524,-0.0945161,206859,
77,0.00332,0.00665,0.00665,0.00332,0.05436,0.05415,0.05753,0.05776,45,78,109,76,0,0.997077,4.71264,-0.1074,206853,
78,0.00332,0.00665,0.00665,0.00332,0.05096,0.05077,0.05415,0.05436,46,79,110,77,0,0.720053,3.3461,0.000292153,206822,
79,0.00332,0.00665,0.00665,0.00332,0.04756,0.04738,0.05077,0.05096,47,80,111,78,0,0.948659,4.57651,0.111116,206853,
80,0.00332,0.00665,0.00665,0.00332,0.04417,0.044,0.04738,0.04756,48,81,112,79,0,0.993429,4.6767,0.11032,206860,
81,0.00332,0.00665,0.00665,0.00332,0.04077,0.04061,0.044,0.04417,49,82,113,80,0,0.941681,4.54875,0.0927428,206855,
82,0.00332,0.00665,0.00665,0.00332,0.03737,0.03723,0.04061,0.04077,50,83,114,81,0,0.993841,4.69268,0.0873037,206857,
83,0.00332,0.00665,0.00665,0.00332,0.03397,0.03384,0.03723,0.03737,51,84,115,82,0,0.995507,4.68745,0.0694211,206854,
84,0.00332,0.00665,0.00665,0.00332,0.03058,0.03046,0.03384,0.03397,52,85,116,83,0,0.995079,4.69105,0.0505906,206856,
85,0.00332,0.00665,0.00665,0.00332,0.02718,0.02707,0.03046,0.03058,53,86,117,84,0,0.991661,4.68074,0.0335525,206855,
86,0.00332,0.00665,0.00665,0.00332,0.02378,0.02369,0.02707,0.02718,54,87,118,85,0,0.993839,4.6767,0.014738,206857,
87,0.00332,0.00665,0.00665,0.00332,0.02038,0.02031,0.02369,0.02378,55,88,119,86,0,0.948365,4.56737,0.00875632,206850,
88,0.00332,0.00665,0.00665,0.00332,0.01699,0.01692,0.02031,0.02038,56,89,120,87,0,0.990607,4.67822,0.00664885,206855,
89,0.00332,0.00665,0.00665,0.00332,0.01359,0.01354,0.01692,0.01699,57,90,121,88,0,0.990436,4.67131,-0.00366891,206853,
90,0.00332,0.00665,0.00665,0.00332,0.01019,0.01015,0.01354,0.01359,58,91,122,89,0,0.946465,4.53276,-0.00312518,206850,
91,0.00332,0.00665,0.00665,0.00332,0.00679,0.00677,0.01015,0.01019,59,92,123,90,0,0.948241,4.55873,0.0032901,206849,
92,0.00332,0.00665,0.00665,0.00332,0.0034,0.00338,0.00677,0.00679,60,93,124,91,0,1.00178,4.69514,-0.00408575,206863,
93,0.00332,0.00665,0.00665,0.00332,0,0,0.00338,0.0034,61,94,125,92,0,0.945656,4.54499,-0.0075821,206848,
94,0.00332,0.00665,0.00665,0.00332,-0.0034,-0.00338,0,0,62,-2,126,93,1,0.945656,4.54499,0.0075821,206848,
95,0.00665,0.00999,0.00999,0.00665,0.10153,0.10113,0.1045,0.10492,63,96,127,-2,1,0.974468,4.63467,-0.00297178,206856,
96,0.00665,0.00999,0.00999,0.00665,0.09815,0.09776,0.10113,0.10153,64,97,128,95,0,0.974468,4.63467,0.00297178,206856,
97,0.00665,0.00999,0.00999,0.00665,0.09476,0.09439,0.09776,0.09815,65,98,129,96,0,0.984442,4.62474,0.00755812,206865,
98,0.00665,0.00999,0.00999,0.00665,0.09138,0.09102,0.09439,0.09476,66,99,130,97,0,0.978109,4.60704,0.00723406,206858,
99,0.00665,0.00999,0.00999,0.00665,0.08799,0.08765,0.09102,0.09138,67,100,131,98,0,0.979194,4.61649,-0.000153592,206862,
100,0.00665,0.00999,0.00999,0.00665,0.08461,0.08427,0.08765,0.08799,68,101,132,99,0,0.982684,4.64185,-0.00401483,206861,
101,0.00665,0.00999,0.00999,0.00665,0.08122,0.0809,0.08427,0.08461,69,102,133,100,0,0.959881,4.62856,-0.00881775,206869,
102,0.00665,0.00999,0.00999,0.00665,0.07784,0.07753,0.0809,0.08122,70,103,134,101,0,0.983958,4.63039,-0.0248616,206862,
103,0.00665,0.00999,0.00999,0.00665,0.07446,0.07416,0.07753,0.07784,71,104,135,102,0,0.95832,4.62902,-0.0339034,206877,
104,0.00665,0.00999,0.00999,0.00665,0.07107,0.07079,0.07416,0.07446,72,105,136,103,0,0.980152,4.62045,-0.0474819,206865,
105,0.00665,0.00999,0.00999,0.00665,0.06769,0.06742,0.07079,0.07107,73,106,137,104,0,0.984702,4.6443,-0.0458681,206862,
106,0.00665,0.00999,0.00999,0.00665,0.0643,0.06405,0.06742,0.06769,74,107,138,105,0,0.956456,4.59302,-0.0359619,206869,
107,0.00665,0.00999,0.00999,0.00665,0.06092,0.06068,0.06405,0.0643,75,108,139,106,0,0.98357,4.64811,-0.0309601,206862,
108,0.00665,0.00999,0.00999,0.00665,0.05753,0.05731,0.06068,0.06092,76,109,140,107,0,0.988047,4.6447,-0.0240092,206864,
109,0.00665,0.00999,0.00999,0.00665,0.05415,0.05394,0.05731,0.05753,77,110,141,108,0,0.978606,4.61024,0.00461224,206864,
110,0.00665,0.00999,0.00999,0.00665,0.05077,0.05056,0.05394,0.05415,78,111,142,109,0,1.11212,5.08212,-0.0227336,206875,
111,0.00665,0.00999,0.00999,0.00665,0.04738,0.04719,0.05056,0.05077,79,112,143,110,0,0.949581,4.57943,-0.0698876,206869,
112,0.00665,0.00999,0.00999,0.00665,0.044,0.04382,0.04719,0.04738,80,113,144,111,0,0.987123,4.63959,-0.0653165,206861,
113,0.00665,0.00999,0.00999,0.00665,0.04061,0.04045,0.04382,0.044,81,114,145,112,0,0.940644,4.54671,-0.0519721,206862,
114,0.00665,0.00999,0.00999,0.00665,0.03723,0.03708,0.04045,0.04061,82,115,146,113,0,0.986661,4.65908,-0.0416073,206860,
115,0.00665,0.00999,0.00999,0.00665,0.03384,0.03371,0.03708,0.03723,83,116,147,114,0,0.978316,4.6038,-0.034019,206870,
116,0.00665,0.00999,0.00999,0.00665,0.03046,0.03034,0.03371,0.03384,84,117,148,115,0,0.985102,4.64015,-0.0253521,206858,
117,0.00665,0.00999,0.00999,0.00665,0.02707,0.02697,0.03034,0.03046,85,118,149,116,0,0.98266,4.63593,-0.0128999,206861,
118,0.00665,0.00999,0.00999,0.00665,0.02369,0.0236,0.02697,0.02707,86,119,150,117,0,0.987989,4.64555,-0.00417903,206860,
119,0.00665,0.00999,0.00999,0.00665,0.02031,0.02023,0.0236,0.02369,87,120,151,118,0,0.95003,4.57707,-0.00038798,206861,
120,0.00665,0.00999,0.00999,0.00665,0.01692,0.01685,0.02023,0.02031,88,121,152,119,0,0.984352,4.65166,0.00730017,206858,
121,0.00665,0.00999,0.00999,0.00665,0.01354,0.01348,0.01685,0.01692,89,122,153,120,0,0.987295,4.65177,0.0197976,206858,
122,0.00665,0.00999,0.00999,0.00665,0.01015,0.01011,0.01348,0.01354,90,123,154,121,0,0.954262,4.56963,0.0254272,206868,
123,0.00665,0.00999,0.00999,0.00665,0.00677,0.00674,0.01011,0.01015,91,124,155,122,0,0.952846,4.58284,0.0189466,206864,
124,0.00665,0.00999,0.00999,0.00665,0.00338,0.00337,0.00674,0.00677,92,125,156,123,0,0.984152,4.62048,0.0111007,206861,
125,0.00665,0.00999,0.00999,0.00665,0,0,0.00337,0.00338,93,126,157,124,0,0.956665,4.60001,0.00205051,206865,
126,0.00665,0.00999,0.00999,0.00665,-0.00338,-0.00337,0,0,94,-2,158,125,1,0.956665,4.60001,-0.00205051,206865,
127,0.00999,0.01332,0.01332,0.00999,0.10113,0.10072,0.10407,0.1045,95,128,159,-2,1,0.978461,4.64354,-0.0031823,206878,
128,0.00999,0.01332,0.01332,0.00999,0.09776,0.09736,0.10072,0.10113,96,129,160,127,0,0.978461,4.64354,0.0031823,206878,
129,0.00999,0.01332,0.01332,0.00999,0.09439,0.094,0.09736,0.09776,97,130,161,128,0,0.996587,4.66433,0.0030155,206877,
130,0.00999,0.01332,0.01332,0.00999,0.09102,0.09065,0.094,0.09439,98,131,162,129,0,0.98617,4.64145,-0.00470326,206884,
131,0.00999,0.01332,0.01332,0.00999,0.08765,0.08729,0.09065,0.09102,99,132,163,130,0,0.980612,4.61618,-0.00740568,206879,
132,0.00999,0.01332,0.01332,0.00999,0.08427,0.08393,0.08729,0.08765,100,133,164,131,0,0.984776,4.64248,-0.0107737,206879,
133,0.00999,0.01332,0.01332,0.00999,0.0809,0.08057,0.08393,0.08427,101,134,165,132,0,0.943534,4.57305,-0.0018424,206873,
134,0.00999,0.01332,0.01332,0.00999,0.07753,0.07722,0.08057,0.0809,102,135,166,133,0,0.984415,4.62792,0.00480929,206881,
135,0.00999,0.01332,0.01332,0.00999,0.07416,0.07386,0.07722,0.07753,103,136,167,134,0,0.929262,4.48837,0.0377334,206860,
136,0.00999,0.01332,0.01332,0.00999,0.07079,0.0705,0.07386,0.07416,104,137,168,135,0,0.979789,4.63148,0.0794141,206879,
137,0.00999,0.01332,0.01332,0.00999,0.06742,0.06714,0.0705,0.07079,105,138,169,136,0,0.995003,4.68085,0.0774622,206886,
138,0.00999,0.01332,0.01332,0.00999,0.06405,0.06379,0.06714,0.06742,106,139,170,137,0,0.948617,4.5616,0.0767985,206875,
139,0.00999,0.01332,0.01332,0.00999,0.06068,0.06043,0.06379,0.06405,107,140,171,138,0,0.991262,4.67492,0.0849251,206891,
140,0.00999,0.01332,0.01332,0.00999,0.05731,0.05707,0.06043,0.06068,108,141,172,139,0,0.99036,4.64988,0.0812351,206878,
141,0.00999,0.01332,0.01332,0.00999,0.05394,0.05372,0.05707,0.05731,109,142,173,140,0,1.01235,4.75252,0.0678154,206895,
142,0.00999,0.01332,0.01332,0.00999,0.05056,0.05036,0.05372,0.05394,110,143,174,141,0,0.977709,4.59879,-0.00937392,206958,
143,0.00999,0.01332,0.01332,0.00999,0.04719,0.047,0.05036,0.05056,111,144,175,142,0,0.9469,4.57034,-0.0501727,206869,
144,0.00999,0.01332,0.01332,0.00999,0.04382,0.04364,0.047,0.04719,112,145,176,143,0,0.992445,4.6555,-0.0453614,206885,
145,0.00999,0.01332,0.01332,0.00999,0.04045,0.04029,0.04364,0.04382,113,146,177,144,0,0.944193,4.56622,-0.0437114,206871,
146,0.00999,0.01332,0.01332,0.00999,0.03708,0.03693,0.04029,0.04045,114,147,178,145,0,0.989264,4.6717,-0.0406164,206878,
147,0.00999,0.01332,0.01332,0.00999,0.03371,0.03357,0.03693,0.03708,115,148,179,146,0,0.987097,4.64386,-0.0414674,206871,
148,0.00999,0.01332,0.01332,0.00999,0.03034,0.03022,0.03357,0.03371,116,149,180,147,0,0.992524,4.67267,-0.0464215,206880,
149,0.00999,0.01332,0.01332,0.00999,0.02697,0.02686,0.03022,0.03034,117,150,181,148,0,0.986823,4.65303,-0.0496109,206869,
150,0.00999,0.01332,0.01332,0.00999,0.0236,0.0235,0.02686,0.02697,118,151,182,149,0,0.990093,4.65214,-0.0531499,206877,
151,0.00999,0.01332,0.01332,0.00999,0.02023,0.02014,0.0235,0.0236,119,152,183,150,0,0.944624,4.5639,-0.0437611,206866,
152,0.00999,0.01332,0.01332,0.00999,0.01685,0.01679,0.02014,0.02023,120,153,184,151,0,0.986554,4.66463,-0.0354401,206873,
153,0.00999,0.01332,0.01332,0.00999,0.01348,0.01343,0.01679,0.01685,121,154,185,152,0,0.99367,4.68137,-0.0329682,206867,
154,0.00999,0.01332,0.01332,0.00999,0.01011,0.01007,0.01343,0.01348,122,155,186,153,0,0.937609,4.51217,-0.0281522,206867,
155,0.00999,0.01332,0.01332,0.00999,0.00674,0.00671,0.01007,0.01011,123,156,187,154,0,0.941904,4.55123,-0.017792,206865,
156,0.00999,0.01332,0.01332,0.00999,0.00337,0.00336,0.00671,0.00674,124,157,188,155,0,0.984599,4.6349,-0.0105378,206874,
157,0.00999,0.01332,0.01332,0.00999,0,0,0.00336,0.00337,125,158,189,156,0,0.940488,4.55118,-0.00537666,206866,
158,0.00999,0.01332,0.01332,0.00999,-0.00337,-0.00336,0,0,126,-2,190,157,1,0.940488,4.55118,0.00537666,206866,
159,0.01332,0.01665,0.01665,0.01332,0.10072,0.1003,0.10364,0.10407,127,160,191,-2,1,0.969585,4.60564,-0.0067604,206878,
160,0.01332,0.01665,0.01665,0.01332,0.09736,0.09695,0.1003,0.10072,128,161,192,159,0,0.969585,4.60564,0.0067604,206878,
161,0.01332,0.01665,0.01665,0.01332,0.094,0.09361,0.09695,0.09736,129,162,193,160,0,0.975605,4.57558,0.00489247,206895,
162,0.01332,0.01665,0.01665,0.01332,0.09065,0.09027,0.09361,0.094,130,163,194,161,0,0.972695,4.58554,-0.00813719,206880,
163,0.01332,0.01665,0.01665,0.01332,0.08729,0.08692,0.09027,0.09065,131,164,195,162,0,0.974487,4.58641,-0.0119964,206883,
164,0.01332,0.01665,0.01665,0.01332,0.08393,0.08358,0.08692,0.08729,132,165,196,163,0,0.976394,4.60421,-0.00692877,206881,
165,0.01332,0.01665,0.01665,0.01332,0.08057,0.08024,0.08358,0.08393,133,166,197,164,0,0.9436,4.58087,0.00404918,206881,
166,0.01332,0.01665,0.01665,0.01332,0.07722,0.07689,0.08024,0.08057,134,167,198,165,0,0.973386,4.57757,0.00774514,206890,
167,0.01332,0.01665,0.01665,0.01332,0.07386,0.07355,0.07689,0.07722,135,168,199,166,0,0.973892,4.69686,-0.00504696,206891,
168,0.01332,0.01665,0.01665,0.01332,0.0705,0.07021,0.07355,0.07386,136,169,200,167,0,0.972683,4.59646,-0.00781164,206887,
169,0.01332,0.01665,0.01665,0.01332,0.06714,0.06686,0.07021,0.0705,137,170,201,168,0,0.975877,4.60444,-0.00674658,206885,
170,0.01332,0.01665,0.01665,0.01332,0.06379,0.06352,0.06686,0.06714,138,171,202,169,0,0.949027,4.56751,-0.0152206,206895,
171,0.01332,0.01665,0.01665,0.01332,0.06043,0.06018,0.06352,0.06379,139,172,203,170,0,0.970509,4.57202,-0.00619591,206873,
172,0.01332,0.01665,0.01665,0.01332,0.05707,0.05684,0.06018,0.06043,140,173,204,171,0,0.976444,4.58666,0.00686871,206893,
173,0.01332,0.01665,0.01665,0.01332,0.05372,0.05349,0.05684,0.05707,141,174,205,172,0,0.962665,4.53776,0.0148793,206873,
174,0.01332,0.01665,0.01665,0.01332,0.05036,0.05015,0.05349,0.05372,142,175,206,173,0,0.945798,4.5366,0.00224171,206883,
175,0.01332,0.01665,0.01665,0.01332,0.047,0.04681,0.05015,0.05036,143,176,207,174,0,0.948916,4.58821,-0.00973832,206884,
176,0.01332,0.01665,0.01665,0.01332,0.04364,0.04346,0.04681,0.047,144,177,208,175,0,0.97533,4.58534,-0.0216169,206880,
177,0.01332,0.01665,0.01665,0.01332,0.04029,0.04012,0.04346,0.04364,145,178,209,176,0,0.932691,4.52807,-0.0265272,206882,
178,0.01332,0.01665,0.01665,0.01332,0.03693,0.03678,0.04012,0.04029,146,179,210,177,0,0.977247,4.62875,-0.0276696,206875,
179,0.01332,0.01665,0.01665,0.01332,0.03357,0.03343,0.03678,0.03693,147,180,211,178,0,0.97453,4.59241,-0.0329989,206883,
180,0.01332,0.01665,0.01665,0.01332,0.03022,0.03009,0.03343,0.03357,148,181,212,179,0,0.975908,4.60625,-0.0427361,206875,
181,0.01332,0.01665,0.01665,0.01332,0.02686,0.02675,0.03009,0.03022,149,182,213,180,0,0.974218,4.5966,-0.0418353,206878,
182,0.01332,0.01665,0.01665,0.01332,0.0235,0.0234,0.02675,0.02686,150,183,214,181,0,0.976074,4.595,-0.0411374,206874,
183,0.01332,0.01665,0.01665,0.01332,0.02014,0.02006,0.0234,0.0235,151,184,215,182,0,0.945113,4.57859,-0.0448586,206871,
184,0.01332,0.01665,0.01665,0.01332,0.01679,0.01672,0.02006,0.02014,152,185,216,183,0,0.975563,4.61791,-0.0365104,206867,
185,0.01332,0.01665,0.01665,0.01332,0.01343,0.01337,0.01672,0.01679,153,186,217,184,0,0.982266,4.64167,-0.0297828,206877,
186,0.01332,0.01665,0.01665,0.01332,0.01007,0.01003,0.01337,0.01343,154,187,218,185,0,0.937239,4.52164,-0.0257664,206869,
187,0.01332,0.01665,0.01665,0.01332,0.00671,0.00669,0.01003,0.01007,155,188,219,186,0,0.941856,4.56324,-0.0182801,206869,
188,0.01332,0.01665,0.01665,0.01332,0.00336,0.00334,0.00669,0.00671,156,189,220,187,0,0.973371,4.583,-0.0132859,206867,
189,0.01332,0.01665,0.01665,0.01332,0,0,0.00334,0.00336,157,190,221,188,0,0.940312,4.56917,-0.00681969,206867,
190,0.01332,0.01665,0.01665,0.01332,-0.00336,-0.00334,0,0,158,-2,222,189,1,0.940312,4.56917,0.00681969,206867,
191,0.01665,0.01999,0.01999,0.01665,0.1003,0.09987,0.1032,0.10364,159,192,223,-2,1,0.977381,4.63189,0.00196648,206895,
192,0.01665,0.01999,0.01999,0.01665,0.09695,0.09654,0.09987,0.1003,160,193,224,191,0,0.977381,4.63189,-0.00196648,206895,
193,0.01665,0.01999,0.01999,0.01665,0.09361,0.09321,0.09654,0.09695,161,194,225,192,0,0.975307,4.57525,-0.0142737,206898,
194,0.01665,0.01999,0.01999,0.01665,0.09027,0.08988,0.09321,0.09361,162,195,226,193,0,0.972696,4.57719,-0.0281091,206894,
195,0.01665,0.01999,0.01999,0.01665,0.08692,0.08655,0.08988,0.09027,163,196,227,194,0,0.975128,4.57654,-0.0413708,206895,
196,0.01665,0.01999,0.01999,0.01665,0.08358,0.08322,0.08655,0.08692,164,197,228,195,0,0.98396,4.6252,-0.0677464,206899,
197,0.01665,0.01999,0.01999,0.01665,0.08024,0.0799,0.08322,0.08358,165,198,229,196,0,0.939997,4.54904,-0.0532534,206884,
198,0.01665,0.01999,0.01999,0.01665,0.07689,0.07657,0.0799,0.08024,166,199,230,197,0,0.97353,4.56885,-0.0457442,206893,
199,0.01665,0.01999,0.01999,0.01665,0.07355,0.07324,0.07657,0.07689,167,200,231,198,0,0.909361,4.34416,-0.00153449,206876,
200,0.01665,0.01999,0.01999,0.01665,0.07021,0.06991,0.07324,0.07355,168,201,232,199,0,0.978138,4.6132,0.0444352,206893,
201,0.01665,0.01999,0.01999,0.01665,0.06686,0.06658,0.06991,0.07021,169,202,233,200,0,0.97569,4.60594,0.0151139,206897,
202,0.01665,0.01999,0.01999,0.01665,0.06352,0.06325,0.06658,0.06686,170,203,234,201,0,0.935285,4.4787,0.0312868,206877,
203,0.01665,0.01999,0.01999,0.01665,0.06018,0.05992,0.06325,0.06352,171,204,235,202,0,0.994423,4.66878,0.0478948,206911,
204,0.01665,0.01999,0.01999,0.01665,0.05684,0.05659,0.05992,0.06018,172,205,236,203,0,0.983998,4.61759,0.0206202,206892,
205,0.01665,0.01999,0.01999,0.01665,0.05349,0.05326,0.05659,0.05684,173,206,237,204,0,0.986368,4.65126,0.00174939,206892,
206,0.01665,0.01999,0.01999,0.01665,0.05015,0.04993,0.05326,0.05349,174,207,238,205,0,0.945181,4.55811,-0.00918494,206893,
207,0.01665,0.01999,0.01999,0.01665,0.04681,0.04661,0.04993,0.05015,175,208,239,206,0,0.941527,4.5567,-0.00797501,206885,
208,0.01665,0.01999,0.01999,0.01665,0.04346,0.04328,0.04661,0.04681,176,209,240,207,0,0.974992,4.58957,-0.0118209,206888,
209,0.01665,0.01999,0.01999,0.01665,0.04012,0.03995,0.04328,0.04346,177,210,241,208,0,0.929729,4.50048,0.0120026,206871,
210,0.01665,0.01999,0.01999,0.01665,0.03678,0.03662,0.03995,0.04012,178,211,242,209,0,0.977445,4.63999,0.0368084,206886,
211,0.01665,0.01999,0.01999,0.01665,0.03343,0.03329,0.03662,0.03678,179,212,243,210,0,0.974665,4.59587,0.0233013,206886,
212,0.01665,0.01999,0.01999,0.01665,0.03009,0.02996,0.03329,0.03343,180,213,244,211,0,0.975684,4.61224,0.00849356,206883,
213,0.01665,0.01999,0.01999,0.01665,0.02675,0.02663,0.02996,0.03009,181,214,245,212,0,0.983836,4.63772,-0.0087949,206880,
214,0.01665,0.01999,0.01999,0.01665,0.0234,0.0233,0.02663,0.02675,182,215,246,213,0,0.976063,4.59995,-0.0300614,206882,
215,0.01665,0.01999,0.01999,0.01665,0.02006,0.01997,0.0233,0.0234,183,216,247,214,0,0.935537,4.5294,-0.0179197,206873,
216,0.01665,0.01999,0.01999,0.01665,0.01672,0.01664,0.01997,0.02006,184,217,248,215,0,0.986192,4.66806,-0.0112332,206877,
217,0.01665,0.01999,0.01999,0.01665,0.01337,0.01332,0.01664,0.01672,185,218,249,216,0,0.982607,4.65012,-0.030919,206875,
218,0.01665,0.01999,0.01999,0.01665,0.01003,0.00999,0.01332,0.01337,186,219,250,217,0,0.940364,4.51238,-0.0125497,206865,
219,0.01665,0.01999,0.01999,0.01665,0.00669,0.00666,0.00999,0.01003,187,220,251,218,0,0.941888,4.56225,0.0111431,206873,
220,0.01665,0.01999,0.01999,0.01665,0.00334,0.00333,0.00666,0.00669,188,221,252,219,0,0.981576,4.61492,0.00183151,206875,
221,0.01665,0.01999,0.01999,0.01665,0,0,0.00333,0.00334,189,222,253,220,0,0.940357,4.5692,-0.00401466,206871,
222,0.01665,0.01999,0.01999,0.01665,-0.00334,-0.00333,0,0,190,-2,254,221,1,0.940357,4.5692,0.00401466,206871,
223,0.01999,0.02332,0.02332,0.01999,0.09987,0.09943,0.10275,0.1032,191,224,255,-2,1,0.969574,4.59766,-0.00329868,206902,
224,0.01999,0.02332,0.02332,0.01999,0.09654,0.09612,0.09943,0.09987,192,225,256,223,0,0.969574,4.59766,0.00329868,206902,
225,0.01999,0.02332,0.02332,0.01999,0.09321,0.09281,0.09612,0.09654,193,226,257,224,0,0.966415,4.53064,0.00664946,206903,
226,0.01999,0.02332,0.02332,0.01999,0.08988,0.08949,0.09281,0.09321,194,227,258,225,0,0.966255,4.5408,0.00845125,206902,
227,0.01999,0.02332,0.02332,0.01999,0.08655,0.08618,0.08949,0.08988,195,228,259,226,0,0.966908,4.53237,0.0142462,206903,
228,0.01999,0.02332,0.02332,0.01999,0.08322,0.08286,0.08618,0.08655,196,229,260,227,0,0.970125,4.56619,0.0223878,206906,
229,0.01999,0.02332,0.02332,0.01999,0.0799,0.07955,0.08286,0.08322,197,230,261,228,0,0.96609,4.64749,0.0306376,206904,
230,0.01999,0.02332,0.02332,0.01999,0.07657,0.07623,0.07955,0.0799,198,231,262,229,0,0.96821,4.5338,0.0407772,206912,
231,0.01999,0.02332,0.02332,0.01999,0.07324,0.07292,0.07623,0.07657,199,232,263,230,0,1.02298,4.83978,0.014128,206911,
232,0.01999,0.02332,0.02332,0.01999,0.06991,0.0696,0.07292,0.07324,200,233,264,231,0,0.966576,4.56253,-0.00883297,206909,
233,0.01999,0.02332,0.02332,0.01999,0.06658,0.06629,0.0696,0.06991,201,234,265,232,0,0.967541,4.56449,0.00480282,206905,
234,0.01999,0.02332,0.02332,0.01999,0.06325,0.06298,0.06629,0.06658,202,235,266,233,0,0.974076,4.62813,0.00529034,206910,
235,0.01999,0.02332,0.02332,0.01999,0.05992,0.05966,0.06298,0.06325,203,236,267,234,0,0.963022,4.53523,-0.0126688,206906,
236,0.01999,0.02332,0.02332,0.01999,0.05659,0.05635,0.05966,0.05992,204,237,268,235,0,0.968851,4.55369,-0.0244533,206910,
237,0.01999,0.02332,0.02332,0.01999,0.05326,0.05303,0.05635,0.05659,205,238,269,236,0,0.96879,4.56433,-0.0154762,206899,
238,0.01999,0.02332,0.02332,0.01999,0.04993,0.04972,0.05303,0.05326,206,239,270,237,0,0.935753,4.51912,-0.00446784,206896,
239,0.01999,0.02332,0.02332,0.01999,0.04661,0.0464,0.04972,0.04993,207,240,271,238,0,0.943644,4.55672,0.00575224,206892,
240,0.01999,0.02332,0.02332,0.01999,0.04328,0.04309,0.0464,0.04661,208,241,272,239,0,0.970121,4.56305,0.00951155,206891,
241,0.01999,0.02332,0.02332,0.01999,0.03995,0.03977,0.04309,0.04328,209,242,273,240,0,0.961851,4.62443,0.00893647,206891,
242,0.01999,0.02332,0.02332,0.01999,0.03662,0.03646,0.03977,0.03995,210,243,274,241,0,0.964335,4.57481,0.0214201,206881,
243,0.01999,0.02332,0.02332,0.01999,0.03329,0.03314,0.03646,0.03662,211,244,275,242,0,0.966013,4.55431,0.030921,206888,
244,0.01999,0.02332,0.02332,0.01999,0.02996,0.02983,0.03314,0.03329,212,245,276,243,0,0.969582,4.57799,0.0276774,206886,
245,0.01999,0.02332,0.02332,0.01999,0.02663,0.02652,0.02983,0.02996,213,246,277,244,0,0.96731,4.56575,0.0203055,206895,
246,0.01999,0.02332,0.02332,0.01999,0.0233,0.0232,0.02652,0.02663,214,247,278,245,0,0.969584,4.56318,0.0129784,206884,
247,0.01999,0.02332,0.02332,0.01999,0.01997,0.01989,0.0232,0.0233,215,248,279,246,0,0.954579,4.60174,0.0161324,206879,
248,0.01999,0.02332,0.02332,0.01999,0.01664,0.01657,0.01989,0.01997,216,249,280,247,0,0.965639,4.56808,0.0278065,206887,
249,0.01999,0.02332,0.02332,0.01999,0.01332,0.01326,0.01657,0.01664,217,250,281,248,0,0.969738,4.59435,0.0290215,206886,
250,0.01999,0.02332,0.02332,0.01999,0.00999,0.00994,0.01326,0.01332,218,251,282,249,0,0.967867,4.60619,0.0157644,206884,
251,0.01999,0.02332,0.02332,0.01999,0.00666,0.00663,0.00994,0.00999,219,252,283,250,0,0.942305,4.55592,0.011003,206878,
252,0.01999,0.02332,0.02332,0.01999,0.00333,0.00331,0.00663,0.00666,220,253,284,251,0,0.966626,4.5467,0.00319574,206889,
253,0.01999,0.02332,0.02332,0.01999,0,0,0.00331,0.00333,221,254,285,252,0,0.942583,4.5728,-0.00249519,206877,
254,0.01999,0.02332,0.02332,0.01999,-0.00333,-0.00331,0,0,222,-2,286,253,1,0.942583,4.5728,0.00249519,206877,
255,0.02332,0.02665,0.02665,0.02332,0.09943,0.09899,0.10229,0.10275,223,256,287,-2,1,0.969584,4.59326,-0.00720565,206912,
256,0.02332,0.02665,0.02665,0.02332,0.09612,0.09569,0.09899,0.09943,224,257,288,255,0,0.969584,4.59326,0.00720565,206912,
257,0.02332,0.02665,0.02665,0.02332,0.09281,0.0924,0.09569,0.09612,225,258,289,256,0,0.968125,4.52627,0.0100263,206917,
258,0.02332,0.02665,0.02665,0.02332,0.08949,0.0891,0.0924,0.09281,226,259,290,257,0,0.967206,4.53943,0.00334745,206915,