'cellnumber','cornerlocs_x','cornerlocs_y','adjacent_cells','edge_state','initial_conditions'
1,-0.0034,0,0,-0.0034,0.0993,0.0989,0.1023,0.1027,-2,2,32,-2,3,1,320,0,350000,
2,-0.0034,0,0,-0.0034,0.0958,0.0955,0.0989,0.0993,-2,3,33,1,3,1,320,0,350000,
3,-0.0034,0,0,-0.0034,0.0924,0.0921,0.0955,0.0958,-2,4,34,2,3,1,320,0,350000,
4,-0.0034,0,0,-0.0034,0.089,0.0887,0.0921,0.0924,-2,5,35,3,3,1,320,0,350000,
5,-0.0034,0,0,-0.0034,0.0856,0.0853,0.0887,0.089,-2,6,36,4,3,1,320,0,350000,
6,-0.0034,0,0,-0.0034,0.0821,0.0818,0.0853,0.0856,-2,7,37,5,3,1,320,0,350000,
7,-0.0034,0,0,-0.0034,0.0787,0.0784,0.0818,0.0821,-2,8,38,6,3,1,320,0,350000,
8,-0.0034,0,0,-0.0034,0.0753,0.075,0.0784,0.0787,-2,9,39,7,3,1,320,0,350000,
9,-0.0034,0,0,-0.0034,0.0719,0.0716,0.075,0.0753,-2,10,40,8,3,1,320,0,350000,
10,-0.0034,0,0,-0.0034,0.0685,0.0682,0.0716,0.0719,-2,11,41,9,3,1,320,0,350000,
11,-0.0034,0,0,-0.0034,0.065,0.0648,0.0682,0.0685,-2,12,42,10,3,1,320,0,350000,
12,-0.0034,0,0,-0.0034,0.0616,0.0614,0.0648,0.065,-2,13,43,11,3,1,320,0,350000,
13,-0.0034,0,0,-0.0034,0.0582,0.058,0.0614,0.0616,-2,14,44,12,3,1,320,0,350000,
14,-0.0034,0,0,-0.0034,0.0548,0.0546,0.058,0.0582,-2,15,45,13,3,1,320,0,350000,
15,-0.0034,0,0,-0.0034,0.0513,0.0512,0.0546,0.0548,-2,16,46,14,3,1,320,0,350000,
16,-0.0034,0,0,-0.0034,0.0479,0.0477,0.0512,0.0513,-2,17,47,15,3,1,320,0,350000,
17,-0.0034,0,0,-0.0034,0.0445,0.0443,0.0477,0.0479,-2,18,48,16,3,1,320,0,350000,
18,-0.0034,0,0,-0.0034,0.0411,0.0409,0.0443,0.0445,-2,19,49,17,3,1,320,0,350000,
19,-0.0034,0,0,-0.0034,0.0376,0.0375,0.0409,0.0411,-2,20,50,18,3,1,320,0,350000,
20,-0.0034,0,0,-0.0034,0.0342,0.0341,0.0375,0.0376,-2,21,51,19,3,1,320,0,350000,
21,-0.0034,0,0,-0.0034,0.0308,0.0307,0.0341,0.0342,-2,22,52,20,3,1,320,0,350000,
22,-0.0034,0,0,-0.0034,0.0274,0.0273,0.0307,0.0308,-2,23,53,21,3,1,320,0,350000,
23,-0.0034,0,0,-0.0034,0.024,0.0239,0.0273,0.0274,-2,24,54,22,3,1,320,0,350000,
24,-0.0034,0,0,-0.0034,0.0205,0.0205,0.0239,0.024,-2,25,55,23,3,1,320,0,350000,
25,-0.0034,0,0,-0.0034,0.0171,0.0171,0.0205,0.0205,-2,26,56,24,3,1,320,0,350000,
26,-0.0034,0,0,-0.0034,0.0137,0.0136,0.0171,0.0171,-2,27,57,25,3,1,320,0,350000,
27,-0.0034,0,0,-0.0034,0.0103,0.0102,0.0136,0.0137,-2,28,58,26,3,1,320,0,350000,
28,-0.0034,0,0,-0.0034,0.0068,0.0068,0.0102,0.0103,-2,29,59,27,3,1,320,0,350000,
29,-0.0034,0,0,-0.0034,0.0034,0.0034,0.0068,0.0068,-2,30,60,28,3,1,320,0,350000,
30,-0.0034,0,0,-0.0034,0,0,0.0034,0.0034,-2,-2,61,29,3,1,320,0,350000,
31,0,0.0033,0.0033,0,0.1023,0.1019,0.1053,0.1057,-2,32,63,-2,1,1.06074,309.618,-53.8134,363551,
32,0,0.0033,0.0033,0,0.0989,0.0985,0.1019,0.1023,1,33,64,31,0,1.06074,313.654,-19.5127,363551,
33,0,0.0033,0.0033,0,0.0955,0.0951,0.0985,0.0989,2,34,65,32,0,1.0484,313.156,-10.35,358677,
34,0,0.0033,0.0033,0,0.0921,0.0917,0.0951,0.0955,3,35,66,33,0,1.0404,313.502,-6.38777,356121,
35,0,0.0033,0.0033,0,0.0887,0.0883,0.0917,0.0921,4,36,67,34,0,1.03488,314.159,-4.3839,354728,
36,0,0.0033,0.0033,0,0.0853,0.0849,0.0883,0.0887,5,37,68,35,0,1.03063,314.842,-3.2746,353847,
37,0,0.0033,0.0033,0,0.0818,0.0815,0.0849,0.0853,6,38,69,36,0,1.02709,315.472,-2.60984,353218,
38,0,0.0033,0.0033,0,0.0784,0.0781,0.0815,0.0818,7,39,70,37,0,1.02402,316.036,-2.18245,352731,
39,0,0.0033,0.0033,0,0.075,0.0747,0.0781,0.0784,8,40,71,38,0,1.02127,316.539,-1.89104,352332,
40,0,0.0033,0.0033,0,0.0716,0.0713,0.0747,0.075,9,41,72,39,0,1.01876,316.992,-1.68298,351993,
41,0,0.0033,0.0033,0,0.0682,0.0679,0.0713,0.0716,10,42,73,40,0,1.01643,317.402,-1.52938,351698,
42,0,0.0033,0.0033,0,0.0648,0.0646,0.0679,0.0682,11,43,74,41,0,1.01424,317.778,-1.41353,351436,
43,0,0.0033,0.0033,0,0.0614,0.0612,0.0646,0.0648,12,44,75,42,0,1.01215,318.127,-1.32536,351199,
44,0,0.0033,0.0033,0,0.058,0.0578,0.0612,0.0614,13,45,76,43,0,1.01015,318.453,-1.25856,350982,
45,0,0.0033,0.0033,0,0.0546,0.0544,0.0578,0.058,14,46,77,44,0,1.0082,318.762,-1.20916,350781,
46,0,0.0033,0.0033,0,0.0512,0.051,0.0544,0.0546,15,47,78,45,0,1.00629,319.057,-1.17467,350592,
47,0,0.0033,0.0033,0,0.0477,0.0476,0.051,0.0512,16,48,79,46,0,1.0044,319.342,-1.15368,350412,
48,0,0.0033,0.0033,0,0.0443,0.0442,0.0476,0.0477,17,49,80,47,0,1.00251,319.619,-1.14565,350239,
49,0,0.0033,0.0033,0,0.0409,0.0408,0.0442,0.0443,18,50,81,48,0,1.0006,319.892,-1.15087,350071,
50,0,0.0033,0.0033,0,0.0375,0.0374,0.0408,0.0409,19,51,82,49,0,0.998658,320.163,-1.17053,349906,
51,0,0.0033,0.0033,0,0.0341,0.034,0.0374,0.0375,20,52,83,50,0,0.996648,320.434,-1.20702,349741,
52,0,0.0033,0.0033,0,0.0307,0.0306,0.034,0.0341,21,53,84,51,0,0.994547,320.711,-1.26453,349573,
53,0,0.0033,0.0033,0,0.0273,0.0272,0.0306,0.0307,22,54,85,52,0,0.992318,320.994,-1.3501,349398,
54,0,0.0033,0.0033,0,0.0239,0.0238,0.0272,0.0273,23,55,86,53,0,0.989916,321.289,-1.47587,349212,
55,0,0.0033,0.0033,0,0.0205,0.0204,0.0238,0.0239,24,56,87,54,0,0.987274,321.597,-1.66359,349004,
56,0,0.0033,0.0033,0,0.0171,0.017,0.0204,0.0205,25,57,88,55,0,0.984296,321.921,-1.95435,348758,
57,0,0.0033,0.0033,0,0.0136,0.0136,0.017,0.0171,26,58,89,56,0,0.980822,322.25,-2.43092,348439,
58,0,0.0033,0.0033,0,0.0102,0.0102,0.0136,0.0136,27,59,90,57,0,0.976566,322.537,-3.27201,347962,
59,0,0.0033,0.0033,0,0.0068,0.0068,0.0102,0.0102,28,60,91,58,0,0.97093,322.607,-4.89268,347100,
60,0,0.0033,0.0033,0,0.0034,0.0034,0.0068,0.0068,29,61,92,59,0,0.962524,321.833,-8.35421,345197,
61,0,0.0033,0.0033,0,0,0,0.0034,0.0034,30,62,93,60,0,0.948702,318.283,-17.118,340609,
62,0,0.0033,0.0033,0,-0.0034,-0.0034,0,0,-2,-2,94,61,1,0.948702,313.565,-57.2171,340609,
63,0.0033,0.0066,0.0066,0.0033,0.1019,0.1015,0.1049,0.1053,31,64,95,-2,1,1.0801,310.455,-45.0967,369390,
64,0.0033,0.0066,0.0066,0.0033,0.0985,0.0981,0.1015,0.1019,32,65,96,63,0,1.0801,312.445,-28.1856,369390,
65,0.0033,0.0066,0.0066,0.0033,0.0951,0.0948,0.0981,0.0985,33,66,97,64,0,1.0701,311.123,-19.0651,364509,
66,0.0033,0.0066,0.0066,0.0033,0.0917,0.0914,0.0948,0.0951,34,67,98,65,0,1.06128,310.755,-13.377,360862,
67,0.0033,0.0066,0.0066,0.0033,0.0883,0.088,0.0914,0.0917,35,68,99,66,0,1.05415,311.166,-9.81493,358489,
68,0.0033,0.0066,0.0066,0.0033,0.0849,0.0846,0.088,0.0883,36,69,100,67,0,1.0482,311.905,-7.57591,356883,
69,0.0033,0.0066,0.0066,0.0033,0.0815,0.0812,0.0846,0.0849,37,70,101,68,0,1.04304,312.733,-6.13189,355722,
70,0.0033,0.0066,0.0066,0.0033,0.0781,0.0778,0.0812,0.0815,38,71,102,69,0,1.03843,313.55,-5.16537,354828,
71,0.0033,0.0066,0.0066,0.0033,0.0747,0.0745,0.0778,0.0781,39,72,103,70,0,1.03423,314.318,-4.49259,354105,
72,0.0033,0.0066,0.0066,0.0033,0.0713,0.0711,0.0745,0.0747,40,73,104,71,0,1.03034,315.031,-4.0076,353499,
73,0.0033,0.0066,0.0066,0.0033,0.0679,0.0677,0.0711,0.0713,41,74,105,72,0,1.02668,315.691,-3.64821,352975,
74,0.0033,0.0066,0.0066,0.0033,0.0646,0.0643,0.0677,0.0679,42,75,106,73,0,1.0232,316.303,-3.37703,352512,
75,0.0033,0.0066,0.0066,0.0033,0.0612,0.0609,0.0643,0.0646,43,76,107,74,0,1.01987,316.875,-3.17092,352097,
76,0.0033,0.0066,0.0066,0.0033,0.0578,0.0575,0.0609,0.0612,44,77,108,75,0,1.01664,317.414,-3.01529,351717,
77,0.0033,0.0066,0.0066,0.0033,0.0544,0.0542,0.0575,0.0578,45,78,109,76,0,1.01348,317.925,-2.90083,351365,
78,0.0033,0.0066,0.0066,0.0033,0.051,0.0508,0.0542,0.0544,46,79,110,77,0,1.01037,318.414,-2.82178,351036,
79,0.0033,0.0066,0.0066,0.0033,0.0476,0.0474,0.0508,0.051,47,80,111,78,0,1.00727,318.887,-2.7749,350723,
80,0.0033,0.0066,0.0066,0.0033,0.0442,0.044,0.0474,0.0476,48,81,112,79,0,1.00415,319.347,-2.75904,350422,
81,0.0033,0.0066,0.0066,0.0033,0.0408,0.0406,0.044,0.0442,49,82,113,80,0,1.00099,319.798,-2.77498,350129,
82,0.0033,0.0066,0.0066,0.0033,0.0374,0.0372,0.0406,0.0408,50,83,114,81,0,0.997757,320.246,-2.82575,349840,
83,0.0033,0.0066,0.0066,0.0033,0.034,0.0338,0.0372,0.0374,51,84,115,82,0,0.994403,320.692,-2.91723,349549,
84,0.0033,0.0066,0.0066,0.0033,0.0306,0.0305,0.0338,0.034,52,85,116,83,0,0.990887,321.143,-3.05955,349251,
85,0.0033,0.0066,0.0066,0.0033,0.0272,0.0271,0.0305,0.0306,53,86,117,84,0,0.987151,321.599,-3.26963,348936,
86,0.0033,0.0066,0.0066,0.0033,0.0238,0.0237,0.0271,0.0272,54,87,118,85,0,0.983122,322.062,-3.57594,348591,
87,0.0033,0.0066,0.0066,0.0033,0.0204,0.0203,0.0237,0.0238,55,88,119,86,0,0.978698,322.528,-4.02774,348195,
88,0.0033,0.0066,0.0066,0.0033,0.017,0.0169,0.0203,0.0204,56,89,120,87,0,0.973734,322.978,-4.71297,347706,
89,0.0033,0.0066,0.0066,0.0033,0.0136,0.0135,0.0169,0.017,57,90,121,88,0,0.968006,323.358,-5.79327,347045,
90,0.0033,0.0066,0.0066,0.0033,0.0102,0.0102,0.0135,0.0136,58,91,122,89,0,0.961154,323.521,-7.57078,346042,
91,0.0033,0.0066,0.0066,0.0033,0.0068,0.0068,0.0102,0.0102,59,92,123,90,0,0.952558,323.086,-10.6058,344330,
92,0.0033,0.0066,0.0066,0.0033,0.0034,0.0034,0.0068,0.0068,60,93,124,91,0,0.941236,321.163,-15.9069,341154,
93,0.0033,0.0066,0.0066,0.0033,0,0,0.0034,0.0034,61,94,125,92,0,0.927052,316.434,-25.4935,335731,
94,0.0033,0.0066,0.0066,0.0033,-0.0034,-0.0034,0,0,62,-2,126,93,1,0.927052,313.71,-48.6411,335731,
95,0.0066,0.01,0.01,0.0066,0.1015,0.1011,0.1045,0.1049,63,96,127,-2,1,1.08225,312.456,-41.4883,371567,
96,0.0066,0.01,0.01,0.0066,0.0981,0.0978,0.1011,0.1015,64,97,128,95,0,1.08225,313.553,-32.1598,371567,
97,0.0066,0.01,0.01,0.0066,0.0948,0.0944,0.0978,0.0981,65,98,129,96,0,1.07581,311.884,-24.9675,367689,
98,0.0066,0.01,0.01,0.0066,0.0914,0.091,0.0944,0.0948,66,99,130,97,0,1.06882,310.732,-19.257,363991,
99,0.0066,0.01,0.01,0.0066,0.088,0.0876,0.091,0.0914,67,100,131,98,0,1.06235,310.499,-15.0237,361195,
100,0.0066,0.01,0.01,0.0066,0.0846,0.0843,0.0876,0.088,68,101,132,99,0,1.05645,310.865,-12.0336,359143,
101,0.0066,0.01,0.01,0.0066,0.0812,0.0809,0.0843,0.0846,69,102,133,100,0,1.05103,311.532,-9.94925,357604,
102,0.0066,0.01,0.01,0.0066,0.0778,0.0775,0.0809,0.0812,70,103,134,101,0,1.046,312.319,-8.48306,356405,
103,0.0066,0.01,0.01,0.0066,0.0745,0.0742,0.0775,0.0778,71,104,135,102,0,1.04128,313.133,-7.43147,355437,
104,0.0066,0.01,0.01,0.0066,0.0711,0.0708,0.0742,0.0745,72,105,136,103,0,1.03681,313.93,-6.66046,354628,
105,0.0066,0.01,0.01,0.0066,0.0677,0.0674,0.0708,0.0711,73,106,137,104,0,1.03255,314.694,-6.08416,353932,
106,0.0066,0.01,0.01,0.0066,0.0643,0.064,0.0674,0.0677,74,107,138,105,0,1.02844,315.419,-5.64779,353321,
107,0.0066,0.01,0.01,0.0066,0.0609,0.0607,0.064,0.0643,75,108,139,106,0,1.02445,316.107,-5.31619,352773,
108,0.0066,0.01,0.01,0.0066,0.0575,0.0573,0.0607,0.0609,76,109,140,107,0,1.02055,316.762,-5.06663,352273,
109,0.0066,0.01,0.01,0.0066,0.0542,0.0539,0.0573,0.0575,77,110,141,108,0,1.01671,317.388,-4.88449,351811,
110,0.0066,0.01,0.01,0.0066,0.0508,0.0506,0.0539,0.0542,78,111,142,109,0,1.01289,317.991,-4.7607,351377,
111,0.0066,0.01,0.01,0.0066,0.0474,0.0472,0.0506,0.0508,79,112,143,110,0,1.00906,318.575,-4.69025,350965,
112,0.0066,0.01,0.01,0.0066,0.044,0.0438,0.0472,0.0474,80,113,144,111,0,1.0052,319.145,-4.67152,350567,
113,0.0066,0.01,0.01,0.0066,0.0406,0.0405,0.0438,0.044,81,114,145,112,0,1.00126,319.705,-4.70609,350177,
114,0.0066,0.01,0.01,0.0066,0.0372,0.0371,0.0405,0.0406,82,115,146,113,0,0.997211,320.258,-4.79924,349790,
115,0.0066,0.01,0.01,0.0066,0.0338,0.0337,0.0371,0.0372,83,116,147,114,0,0.993003,320.807,-4.96092,349396,
116,0.0066,0.01,0.01,0.0066,0.0305,0.0303,0.0337,0.0338,84,117,148,115,0,0.988586,321.355,-5.20793,348986,
117,0.0066,0.01,0.01,0.0066,0.0271,0.027,0.0303,0.0305,85,118,149,116,0,0.983895,321.9,-5.56767,348546,
118,0.0066,0.01,0.01,0.0066,0.0237,0.0236,0.027,0.0271,86,119,150,117,0,0.978849,322.435,-6.08474,348052,
119,0.0066,0.01,0.01,0.0066,0.0203,0.0202,0.0236,0.0237,87,120,151,118,0,0.973342,322.94,-6.83255,347468,
120,0.0066,0.01,0.01,0.0066,0.0169,0.0169,0.0202,0.0203,88,121,152,119,0,0.967235,323.366,-7.93291,346730,
121,0.0066,0.01,0.01,0.0066,0.0135,0.0135,0.0169,0.0169,89,122,153,120,0,0.960336,323.605,-9.5869,345722,
122,0.0066,0.01,0.01,0.0066,0.0102,0.0101,0.0135,0.0135,90,123,154,121,0,0.95238,323.421,-12.1148,344232,
123,0.0066,0.01,0.01,0.0066,0.0068,0.0067,0.0101,0.0102,91,124,155,122,0,0.943023,322.348,-15.9802,341883,
124,0.0066,0.01,0.01,0.0066,0.0034,0.0034,0.0067,0.0068,92,125,156,123,0,0.931996,319.624,-21.7246,338142,
125,0.0066,0.01,0.01,0.0066,0,0,0.0034,0.0034,93,126,157,124,0,0.920527,314.919,-29.9305,333126,
126,0.0066,0.01,0.01,0.0066,-0.0034,-0.0034,0,0,94,-2,158,125,1,0.920527,313.267,-43.9738,333126,
127,0.01,0.0133,0.0133,0.01,0.1011,0.1007,0.1041,0.1045,95,128,159,-2,1,1.0778,314.71,-39.9845,372198,
128,0.01,0.0133,0.0133,0.01,0.0978,0.0974,0.1007,0.1011,96,129,160,127,0,1.0778,315.397,-34.1458,372198,
129,0.01,0.0133,0.0133,0.01,0.0944,0.094,0.0974,0.0978,97,130,161,128,0,1.07384,313.744,-28.7448,369261,
130,0.01,0.0133,0.0133,0.01,0.091,0.0906,0.094,0.0944,98,131,162,129,0,1.06888,312.12,-23.7094,365917,
131,0.01,0.0133,0.0133,0.01,0.0876,0.0873,0.0906,0.091,99,132,163,130,0,1.06378,311.27,-19.4583,363062,
132,0.01,0.0133,0.0133,0.01,0.0843,0.0839,0.0873,0.0876,100,133,164,131,0,1.05873,311.124,-16.1407,360798,
133,0.01,0.0133,0.0133,0.01,0.0809,0.0806,0.0839,0.0843,101,134,165,132,0,1.05379,311.441,-13.6527,359023,
134,0.01,0.0133,0.0133,0.01,0.0775,0.0772,0.0806,0.0809,102,135,166,133,0,1.049,312.018,-11.8108,357611,
135,0.01,0.0133,0.0133,0.01,0.0742,0.0739,0.0772,0.0775,103,136,167,134,0,1.04434,312.72,-10.444,356460,
136,0.01,0.0133,0.0133,0.01,0.0708,0.0705,0.0739,0.0742,104,137,168,135,0,1.03982,313.471,-9.42014,355497,
137,0.01,0.0133,0.0133,0.01,0.0674,0.0671,0.0705,0.0708,105,138,169,136,0,1.03542,314.228,-8.64532,354671,
138,0.01,0.0133,0.0133,0.01,0.064,0.0638,0.0671,0.0674,106,139,170,137,0,1.0311,314.973,-8.05502,353947,
139,0.01,0.0133,0.0133,0.01,0.0607,0.0604,0.0638,0.064,107,140,171,138,0,1.02687,315.695,-7.60581,353299,
140,0.01,0.0133,0.0133,0.01,0.0573,0.0571,0.0604,0.0607,108,141,172,139,0,1.02267,316.394,-7.26873,352708,
141,0.01,0.0133,0.0133,0.01,0.0539,0.0537,0.0571,0.0573,109,142,173,140,0,1.0185,317.07,-7.02484,352162,
142,0.01,0.0133,0.0133,0.01,0.0506,0.0504,0.0537,0.0539,110,143,174,141,0,1.01433,317.725,-6.8623,351649,
143,0.01,0.0133,0.0133,0.01,0.0472,0.047,0.0504,0.0506,111,144,175,142,0,1.01012,318.363,-6.77471,351159,
144,0.01,0.0133,0.0133,0.01,0.0438,0.0436,0.047,0.0472,112,145,176,143,0,1.00585,318.987,-6.76024,350684,
145,0.01,0.0133,0.0133,0.01,0.0405,0.0403,0.0436,0.0438,113,146,177,144,0,1.00148,319.6,-6.8215,350216,
146,0.01,0.0133,0.0133,0.01,0.0371,0.0369,0.0403,0.0405,114,147,178,145,0,0.996967,320.204,-6.96608,349746,
147,0.01,0.0133,0.0133,0.01,0.0337,0.0336,0.0369,0.0371,115,148,179,146,0,0.992278,320.8,-7.20799,349263,
148,0.01,0.0133,0.0133,0.01,0.0303,0.0302,0.0336,0.0337,116,149,180,147,0,0.98736,321.384,-7.57017,348753,
149,0.01,0.0133,0.0133,0.01,0.027,0.0269,0.0302,0.0303,117,150,181,148,0,0.982154,321.95,-8.08893,348194,
150,0.01,0.0133,0.0133,0.01,0.0236,0.0235,0.0269,0.027,118,151,182,149,0,0.97659,322.479,-8.82097,347555,
151,0.01,0.0133,0.0133,0.01,0.0202,0.0201,0.0235,0.0236,119,152,183,150,0,0.970586,322.93,-9.85429,346786,
152,0.01,0.0133,0.0133,0.01,0.0169,0.0168,0.0201,0.0202,120,153,184,151,0,0.964047,323.224,-11.3232,345807,
153,0.01,0.0133,0.0133,0.01,0.0135,0.0134,0.0168,0.0169,121,154,185,152,0,0.956865,323.208,-13.4244,344486,
154,0.01,0.0133,0.0133,0.01,0.0101,0.0101,0.0134,0.0135,122,155,186,153,0,0.948936,322.604,-16.4184,342612,
155,0.01,0.0133,0.0133,0.01,0.0067,0.0067,0.0101,0.0101,123,156,187,154,0,0.940203,320.976,-20.5735,339891,
156,0.01,0.0133,0.0133,0.01,0.0034,0.0034,0.0067,0.0067,124,157,188,155,0,0.930863,317.856,-25.9839,336082,
157,0.01,0.0133,0.0133,0.01,0,0,0.0034,0.0034,125,158,189,156,0,0.922405,313.633,-32.4429,331828,
158,0.01,0.0133,0.0133,0.01,-0.0034,-0.0034,0,0,126,-2,190,157,1,0.922405,312.599,-41.2315,331828,
159,0.0133,0.0166,0.0166,0.0133,0.1007,0.1003,0.1036,0.1041,127,160,191,-2,1,1.07108,316.856,-39.3486,372214,
160,0.0133,0.0166,0.0166,0.0133,0.0974,0.097,0.1003,0.1007,128,161,192,159,0,1.07108,317.336,-35.2623,372214,
161,0.0133,0.0166,0.0166,0.0133,0.094,0.0936,0.097,0.0974,129,162,193,160,0,1.06864,315.85,-31.1789,369976,
162,0.0133,0.0166,0.0166,0.0133,0.0906,0.0903,0.0936,0.094,130,163,194,161,0,1.06526,314.043,-26.9599,367077,
163,0.0133,0.0166,0.0166,0.0133,0.0873,0.0869,0.0903,0.0906,131,164,195,162,0,1.06149,312.759,-23.0301,364344,
164,0.0133,0.0166,0.0166,0.0133,0.0839,0.0836,0.0869,0.0873,132,165,196,163,0,1.05747,312.141,-19.6984,362022,
165,0.0133,0.0166,0.0166,0.0133,0.0806,0.0802,0.0836,0.0839,133,166,197,164,0,1.05331,312.062,-17.0314,360118,
166,0.0133,0.0166,0.0166,0.0133,0.0772,0.0769,0.0802,0.0806,134,167,198,165,0,1.04907,312.345,-14.9583,358563,
167,0.0133,0.0166,0.0166,0.0133,0.0739,0.0736,0.0769,0.0772,135,168,199,166,0,1.0448,312.846,-13.3654,357278,
168,0.0133,0.0166,0.0166,0.0133,0.0705,0.0702,0.0736,0.0739,136,169,200,167,0,1.04053,313.466,-12.1439,356197,
169,0.0133,0.0166,0.0166,0.0133,0.0671,0.0669,0.0702,0.0705,137,170,201,168,0,1.03627,314.142,-11.2056,355268,
170,0.0133,0.0166,0.0166,0.0133,0.0638,0.0635,0.0669,0.0671,138,171,202,169,0,1.03203,314.84,-10.485,354454,
171,0.0133,0.0166,0.0166,0.0133,0.0604,0.0602,0.0635,0.0638,139,172,203,170,0,1.0278,315.538,-9.935,353726,
172,0.0133,0.0166,0.0166,0.0133,0.0571,0.0568,0.0602,0.0604,140,173,204,171,0,1.02357,316.228,-9.52326,353064,
173,0.0133,0.0166,0.0166,0.0133,0.0537,0.0535,0.0568,0.0571,141,174,205,172,0,1.01931,316.905,-9.228,352450,
174,0.0133,0.0166,0.0166,0.0133,0.0504,0.0501,0.0535,0.0537,142,175,206,173,0,1.01502,317.568,-9.03551,351873,
175,0.0133,0.0166,0.0166,0.0133,0.047,0.0468,0.0501,0.0504,143,176,207,174,0,1.01067,318.217,-8.9385,351320,
176,0.0133,0.0166,0.0166,0.0133,0.0436,0.0435,0.0468,0.047,144,177,208,175,0,1.00624,318.854,-8.93519,350781,
177,0.0133,0.0166,0.0166,0.0133,0.0403,0.0401,0.0435,0.0436,145,178,209,176,0,1.00169,319.478,-9.02923,350247,
178,0.0133,0.0166,0.0166,0.0133,0.0369,0.0368,0.0401,0.0403,146,179,210,177,0,0.996987,320.09,-9.23034,349704,
179,0.0133,0.0166,0.0166,0.0133,0.0336,0.0334,0.0368,0.0369,147,180,211,178,0,0.992105,320.686,-9.55583,349140,
180,0.0133,0.0166,0.0166,0.0133,0.0302,0.0301,0.0334,0.0336,148,181,212,179,0,0.987001,321.259,-10.0333,348536,
181,0.0133,0.0166,0.0166,0.0133,0.0269,0.0267,0.0301,0.0302,149,182,213,180,0,0.981633,321.791,-10.7048,347865,
182,0.0133,0.0166,0.0166,0.0133,0.0235,0.0234,0.0267,0.0269,150,183,214,181,0,0.975955,322.251,-11.6331,347088,
183,0.0133,0.0166,0.0166,0.0133,0.0201,0.0201,0.0234,0.0235,151,184,215,182,0,0.969925,322.58,-12.9092,346147,
184,0.0133,0.0166,0.0166,0.0133,0.0168,0.0167,0.0201,0.0201,152,185,216,183,0,0.963509,322.672,-14.6598,344955,
185,0.0133,0.0166,0.0166,0.0133,0.0134,0.0134,0.0167,0.0168,153,186,217,184,0,0.956695,322.35,-17.0457,343382,
186,0.0133,0.0166,0.0166,0.0133,0.0101,0.01,0.0134,0.0134,154,187,218,185,0,0.949517,321.341,-20.2331,341256,
187,0.0133,0.0166,0.0166,0.0133,0.0067,0.0067,0.01,0.0101,155,188,219,186,0,0.942109,319.309,-24.2969,338396,
188,0.0133,0.0166,0.0166,0.0133,0.0034,0.0033,0.0067,0.0067,156,189,220,187,0,0.934847,316.083,-29.0346,334808,
189,0.0133,0.0166,0.0166,0.0133,0,0,0.0033,0.0034,157,190,221,188,0,0.928963,312.454,-33.9317,331343,
190,0.0133,0.0166,0.0166,0.0133,-0.0034,-0.0033,0,0,158,-2,222,189,1,0.928963,311.797,-39.5096,331343,
191,0.0166,0.02,0.02,0.0166,0.1003,0.0999,0.1032,0.1036,159,192,223,-2,1,1.06387,318.783,-39.0795,372002,
192,0.0166,0.02,0.02,0.0166,0.097,0.0965,0.0999,0.1003,160,193,224,191,0,1.06387,319.148,-35.9712,372002,
193,0.0166,0.02,0.02,0.0166,0.0936,0.0932,0.0965,0.097,161,194,225,192,0,1.06232,317.858,-32.8047,370257,
194,0.0166,0.02,0.02,0.0166,0.0903,0.0899,0.0932,0.0936,162,195,226,193,0,1.06004,316.049,-29.3271,367772,
195,0.0166,0.02,0.02,0.0166,0.0869,0.0866,0.0899,0.0903,163,196,227,194,0,1.05734,314.515,-25.8445,365236,
196,0.0166,0.02,0.02,0.0166,0.0836,0.0832,0.0866,0.0869,164,197,228,195,0,1.05428,313.534,-22.6857,362948,
197,0.0166,0.02,0.02,0.0166,0.0802,0.0799,0.0832,0.0836,165,198,229,196,0,1.05093,313.091,-20.0094,360989,
198,0.0166,0.02,0.02,0.0166,0.0769,0.0766,0.0799,0.0802,166,199,230,197,0,1.04735,313.066,-17.8337,359344,
199,0.0166,0.02,0.02,0.0166,0.0736,0.0732,0.0766,0.0769,167,200,231,198,0,1.04361,313.327,-16.1047,357961,
200,0.0166,0.02,0.02,0.0166,0.0702,0.0699,0.0732,0.0736,168,201,232,199,0,1.03975,313.77,-14.7466,356787,
201,0.0166,0.02,0.02,0.0166,0.0669,0.0666,0.0699,0.0702,169,202,233,200,0,1.0358,314.319,-13.6866,355775,
202,0.0166,0.02,0.02,0.0166,0.0635,0.0633,0.0666,0.0669,170,203,234,201,0,1.03179,314.926,-12.8646,354886,
203,0.0166,0.02,0.02,0.0166,0.0602,0.0599,0.0633,0.0635,171,204,235,202,0,1.02773,315.561,-12.2348,354092,
204,0.0166,0.02,0.02,0.0166,0.0568,0.0566,0.0599,0.0602,172,205,236,203,0,1.02362,316.204,-11.7641,353368,
205,0.0166,0.02,0.02,0.0166,0.0535,0.0533,0.0566,0.0568,173,206,237,204,0,1.01945,316.848,-11.4294,352698,
206,0.0166,0.02,0.02,0.0166,0.0501,0.0499,0.0533,0.0535,174,207,238,205,0,1.01521,317.485,-11.2162,352065,
207,0.0166,0.02,0.02,0.0166,0.0468,0.0466,0.0499,0.0501,175,208,239,206,0,1.01089,318.113,-11.1169,351458,
208,0.0166,0.02,0.02,0.0166,0.0435,0.0433,0.0466,0.0468,176,209,240,207,0,1.00647,318.73,-11.1299,350863,
209,0.0166,0.02,0.02,0.0166,0.0401,0.0399,0.0433,0.0435,177,210,241,208,0,1.00193,319.334,-11.2597,350269,
210,0.0166,0.02,0.02,0.0166,0.0368,0.0366,0.0399,0.0401,178,211,242,209,0,0.997239,319.92,-11.5177,349661,
211,0.0166,0.02,0.02,0.0166,0.0334,0.0333,0.0366,0.0368,179,212,243,210,0,0.992386,320.481,-11.9232,349023,
212,0.0166,0.02,0.02,0.0166,0.0301,0.03,0.0333,0.0334,180,213,244,211,0,0.987342,321.001,-12.5064,348331,
213,0.0166,0.02,0.02,0.0166,0.0267,0.0266,0.03,0.0301,181,214,245,212,0,0.982087,321.457,-13.3114,347555,
214,0.0166,0.02,0.02,0.0166,0.0234,0.0233,0.0266,0.0267,182,215,246,213,0,0.976607,321.803,-14.4006,346653,
215,0.0166,0.02,0.02,0.0166,0.0201,0.02,0.0233,0.0234,183,216,247,214,0,0.970903,321.964,-15.8579,345562,
216,0.0166,0.02,0.02,0.0166,0.0167,0.0166,0.02,0.0201,184,217,248,215,0,0.964999,321.818,-17.788,344198,
217,0.0166,0.02,0.02,0.0166,0.0134,0.0133,0.0166,0.0167,185,218,249,216,0,0.95896,321.186,-20.3013,342449,
218,0.0166,0.02,0.02,0.0166,0.01,0.01,0.0133,0.0134,186,219,250,217,0,0.952909,319.831,-23.4672,340196,
219,0.0166,0.02,0.02,0.0166,0.0067,0.0067,0.01,0.01,187,220,251,218,0,0.947058,317.54,-27.2132,337370,
220,0.0166,0.02,0.02,0.0166,0.0033,0.0033,0.0067,0.0067,188,221,252,219,0,0.941773,314.384,-31.1879,334141,
221,0.0166,0.02,0.02,0.0166,0,0,0.0033,0.0033,189,222,253,220,0,0.937897,311.321,-34.8307,331377,
222,0.0166,0.02,0.02,0.0166,-0.0033,-0.0033,0,0,190,-2,254,221,1,0.937897,310.904,-38.3722,331377,
223,0.02,0.0233,0.0233,0.02,0.0999,0.0994,0.1027,0.1032,191,224,255,-2,1,1.05686,320.479,-38.9708,371720,
224,0.02,0.0233,0.0233,0.02,0.0965,0.0961,0.0994,0.0999,192,225,256,223,0,1.05686,320.773,-36.4706,371720,
225,0.02,0.0233,0.0233,0.02,0.0932,0.0928,0.0961,0.0965,193,226,257,224,0,1.05584,319.663,-33.9431,370321,
226,0.02,0.0233,0.0233,0.02,0.0899,0.0895,0.0928,0.0932,194,227,258,225,0,1.0543,317.942,-31.0774,368187,
227,0.02,0.0233,0.0233,0.02,0.0866,0.0862,0.0895,0.0899,195,228,259,226,0,1.0524,316.296,-28.0546,365867,
228,0.02,0.0233,0.0233,0.02,0.0832,0.0829,0.0862,0.0866,196,229,260,227,0,1.05013,315.065,-25.1601,363662,
229,0.02,0.0233,0.0233,0.02,0.0799,0.0795,0.0829,0.0832,197,230,261,228,0,1.04751,314.323,-22.5857,361700,
230,0.02,0.0233,0.0233,0.02,0.0766,0.0762,0.0795,0.0799,198,231,262,229,0,1.04458,314.013,-20.4068,360004,
231,0.02,0.0233,0.0233,0.02,0.0732,0.0729,0.0762,0.0766,199,232,263,230,0,1.0414,314.031,-18.6197,358552,
232,0.02,0.0233,0.0233,0.02,0.0699,0.0696,0.0729,0.0732,200,233,264,231,0,1.03801,314.278,-17.1824,357305,
233,0.02,0.0233,0.0233,0.02,0.0666,0.0663,0.0696,0.0699,201,234,265,232,0,1.03446,314.675,-16.0421,356223,
234,0.02,0.0233,0.0233,0.02,0.0633,0.063,0.0663,0.0666,202,235,266,233,0,1.03078,315.164,-15.1487,355270,
235,0.02,0.0233,0.0233,0.02,0.0599,0.0597,0.063,0.0633,203,236,267,234,0,1.02699,315.708,-14.4608,354416,
236,0.02,0.0233,0.0233,0.02,0.0566,0.0563,0.0597,0.0599,204,237,268,235,0,1.0231,316.28,-13.947,353639,
237,0.02,0.0233,0.0233,0.02,0.0533,0.053,0.0563,0.0566,205,238,269,236,0,1.01913,316.865,-13.5847,352917,
238,0.02,0.0233,0.0233,0.02,0.0499,0.0497,0.053,0.0533,206,239,270,237,0,1.01505,317.452,-13.3593,352236,
239,0.02,0.0233,0.0233,0.02,0.0466,0.0464,0.0497,0.0499,207,240,271,238,0,1.01088,318.036,-13.2633,351579,
240,0.02,0.0233,0.0233,0.02,0.0433,0.0431,0.0464,0.0466,208,241,272,239,0,1.00661,318.609,-13.2953,350933,
241,0.02,0.0233,0.0233,0.02,0.0399,0.0398,0.0431,0.0433,209,242,273,240,0,1.00221,319.167,-13.4605,350284,
242,0.02,0.0233,0.0233,0.02,0.0366,0.0365,0.0398,0.0399,210,243,274,241,0,0.997691,319.701,-13.771,349616,
243,0.02,0.0233,0.0233,0.02,0.0333,0.0331,0.0365,0.0366,211,244,275,242,0,0.993032,320.198,-14.247,348908,
244,0.02,0.0233,0.0233,0.02,0.03,0.0298,0.0331,0.0333,212,245,276,243,0,0.988232,320.637,-14.9189,348137,
245,0.02,0.0233,0.0233,0.02,0.0266,0.0265,0.0298,0.03,213,246,277,244,0,0.983293,320.985,-15.8293,347268,
246,0.02,0.0233,0.0233,0.02,0.0233,0.0232,0.0265,0.0266,214,247,278,245,0,0.978233,321.185,-17.0348,346257,
247,0.02,0.0233,0.0233,0.02,0.02,0.0199,0.0232,0.0233,215,248,279,246,0,0.973089,321.152,-18.6053,345044,
248,0.02,0.0233,0.0233,0.02,0.0166,0.0166,0.0199,0.02,216,249,280,247,0,0.967931,320.76,-20.6164,343555,
249,0.02,0.0233,0.0233,0.02,0.0133,0.0133,0.0166,0.0166,217,250,281,248,0,0.962868,319.841,-23.1257,341705,
250,0.02,0.0233,0.0233,0.02,0.01,0.0099,0.0133,0.0133,218,251,282,249,0,0.95806,318.213,-26.1221,339427,
251,0.02,0.0233,0.0233,0.02,0.0067,0.0066,0.0099,0.01,219,252,283,250,0,0.953716,315.786,-29.4406,336744,
252,0.02,0.0233,0.0233,0.02,0.0033,0.0033,0.0066,0.0067,220,253,284,251,0,0.950106,312.796,-32.686,333918,
253,0.02,0.0233,0.0233,0.02,0,0,0.0033,0.0033,221,254,285,252,0,0.947713,310.223,-35.3686,331736,
254,0.02,0.0233,0.0233,0.02,-0.0033,-0.0033,0,0,222,-2,286,253,1,0.947713,309.961,-37.5943,331736,
255,0.0233,0.0266,0.0266,0.0233,0.0994,0.099,0.1023,0.1027,223,256,287,-2,1,1.0503,321.963,-38.9344,371433,
256,0.0233,0.0266,0.0266,0.0233,0.0961,0.0957,0.099,0.0994,224,257,288,255,0,1.0503,322.208,-36.8503,371433,
257,0.0233,0.0266,0.0266,0.0233,0.0928,0.0924,0.0957,0.0961,225,258,289,256,0,1.0496,321.249,-34.7803,370278,
258,0.0233,0.0266,0.0266,0.0233,0.0895,0.0891,0.0924,0.0928,226,259,290,257,0,1.04856,319.651,-32.4022,368433,
259,0.0233,0.0266,0.0266,0.0233,0.0862,0.0858,0.0891,0.0895,227,260,291,258,0,1.04723,317.984,-29.802,366321,
260,0.0233,0.0266,0.0266,0.0233,0.0829,0.0825,0.0858,0.0862,228,261,292,259,0,1.04558,316.598,-27.2031,364225,
261,0.0233,0.0266,0.0266,0.0233,0.0795,0.0792,0.0825,0.0829,229,262,293,260,0,1.04358,315.629,-24.7947,362291,
262,0.0233,0.0266,0.0266,0.0233,0.0762,0.0759,0.0792,0.0795,230,263,294,261,0,1.04124,315.073,-22.6822,360574,
263,0.0233,0.0266,0.0266,0.0233,0.0729,0.0726,0.0759,0.0762,231,264,295,262,0,1.0386,314.862,-20.8982,359075,
264,0.0233,0.0266,0.0266,0.0233,0.0696,0.0693,0.0726,0.0729,232,265,296,263,0,1.0357,314.913,-19.4308,357771,
265,0.0233,0.0266,0.0266,0.0233,0.0663,0.066,0.0693,0.0696,233,266,297,264,0,1.03257,315.147,-18.2475,356630,
266,0.0233,0.0266,0.0266,0.0233,0.063,0.0627,0.066,0.0663,234,267,298,265,0,1.02927,315.504,-17.3104,355621,
267,0.0233,0.0266,0.0266,0.0233,0.0597,0.0594,0.0627,0.063,235,268,299,266,0,1.02581,315.94,-16.5851,354714,
268,0.0233,0.0266,0.0266,0.0233,0.0563,0.0561,0.0594,0.0597,236,269,300,267,0,1.02221,316.423,-16.0431,353887,
269,0.0233,0.0266,0.0266,0.0233,0.053,0.0528,0.0561,0.0563,237,270,301,268,0,1.0185,316.932,-15.6637,353118,
270,0.0233,0.0266,0.0266,0.0233,0.0497,0.0495,0.0528,0.053,238,271,302,269,0,1.01467,317.453,-15.4331,352391,
271,0.0233,0.0266,0.0266,0.0233,0.0464,0.0462,0.0495,0.0497,239,272,303,270,0,1.01074,317.974,-15.3439,351688,
272,0.0233,0.0266,0.0266,0.0233,0.0431,0.0429,0.0462,0.0464,240,273,304,271,0,1.0067,318.485,-15.3953,350994,
273,0.0233,0.0266,0.0266,0.0233,0.0398,0.0396,0.0429,0.0431,241,274,305,272,0,1.00256,318.979,-15.5924,350294,
274,0.0233,0.0266,0.0266,0.0233,0.0365,0.0363,0.0396,0.0398,242,275,306,273,0,0.998308,319.441,-15.9475,349570,
275,0.0233,0.0266,0.0266,0.0233,0.0331,0.033,0.0363,0.0365,243,276,307,274,0,0.993964,319.853,-16.4803,348799,
276,0.0233,0.0266,0.0266,0.0233,0.0298,0.0297,0.033,0.0331,244,277,308,275,0,0.989536,320.19,-17.2192,347956,
277,0.0233,0.0266,0.0266,0.0233,0.0265,0.0264,0.0297,0.0298,245,278,309,276,0,0.98505,320.408,-18.2024,347007,
278,0.0233,0.0266,0.0266,0.0233,0.0232,0.0231,0.0264,0.0265,246,279,310,277,0,0.980548,320.446,-19.4772,345907,
279,0.0233,0.0266,0.0266,0.0233,0.0199,0.0198,0.0231,0.0232,247,280,311,278,0,0.976094,320.211,-21.096,344603,
280,0.0233,0.0266,0.0266,0.0233,0.0166,0.0165,0.0198,0.0199,248,281,312,279,0,0.971783,319.583,-23.1036,343034,
281,0.0233,0.0266,0.0266,0.0233,0.0133,0.0132,0.0165,0.0166,249,282,313,280,0,0.967742,318.417,-25.5114,341145,
282,0.0233,0.0266,0.0266,0.0233,0.0099,0.0099,0.0132,0.0133,250,283,314,281,0,0.964124,316.592,-28.25,338917,
283,0.0233,0.0266,0.0266,0.0233,0.0066,0.0066,0.0099,0.0099,251,284,315,282,0,0.961093,314.12,-31.109,336435,
284,0.0233,0.0266,0.0266,0.0233,0.0033,0.0033,0.0066,0.0066,252,285,316,283,0,0.9588,311.341,-33.7123,334000,
285,0.0233,0.0266,0.0266,0.0233,0,0,0.0033,0.0033,253,286,317,284,0,0.957459,309.176,-35.6778,332281,
286,0.0233,0.0266,0.0266,0.0233,-0.0033,-0.0033,0,0,254,-2,318,285,1,0.957459,309.014,-37.0505,332281,
287,0.0266,0.03,0.03,0.0266,0.099,0.0986,0.1018,0.1023,255,288,319,-2,1,1.04427,323.261,-38.9312,371161,
288,0.0266,0.03,0.03,0.0266,0.0957,0.0953,0.0986,0.099,256,289,320,287,0,1.04427,323.47,-37.1547,371161,
289,0.0266,0.03,0.03,0.0266,0.0924,0.092,0.0953,0.0957,257,290,321,288,0,1.04377,322.634,-35.4239,370186,
290,0.0266,0.03,0.03,0.0266,0.0891,0.0887,0.092,0.0924,258,291,322,289,0,1.04306,321.166,-33.4318,368573,
291,0.0266,0.03,0.03,0.0266,0.0858,0.0854,0.0887,0.0891,259,292,323,290,0,1.04215,319.53,-31.2009,366652,